# LAMMPS data file
1871 atoms
1871 ellipsoids
39 bonds

6 atom types
1 bond types

# System size
-10.000000 10.000000 xlo xhi
-10.000000 10.000000 ylo yhi
-150.000000 150.000000 zlo zhi

Masses

1 3.1575
2 3.1575
3 3.1575
4 3.1575
5 3.1575
6 3.1575

# Atom-ID, type, position, molecule-ID, ellipsoid flag, density
Atoms

1 5 3.4409030000000000 0.6106609000000000 -12.1251800000000003 2.0800000000000001 1 1 1
2 5 3.1520120000000000 0.0968527800000000 -11.7191200000000002 2.0800000000000001 1 1 1
3 5 4.1919040000000001 -0.7364047000000000 -11.0905900000000006 2.0800000000000001 1 1 1
4 5 3.9796990000000001 -0.1725519000000000 -9.9749090000000002 2.0800000000000001 1 1 1
5 5 4.0401040000000004 -0.9581585000000000 -9.7881920000000004 2.0800000000000001 1 1 1
6 5 4.4984859999999998 -1.1090570000000000 -9.4034030000000008 2.0800000000000001 1 1 1
7 5 3.3901050000000001 -1.1421300000000001 -8.7531529999999993 2.0800000000000001 1 1 1
8 5 4.5091060000000001 -1.5050760000000001 -8.4642739999999996 2.0800000000000001 1 1 1
9 5 3.6137180000000000 -1.4760810000000000 -7.8810840000000004 2.0800000000000001 1 1 1
10 5 3.6356750000000000 -1.6747570000000001 -7.0920509999999997 2.0800000000000001 1 1 1
11 4 4.0894399999999997 -2.0447020000000000 -6.5958410000000001 -2.0800000000000001 1 1 1
12 4 3.7191779999999999 -2.1047530000000001 -6.3470769999999996 -2.0800000000000001 1 1 1
13 4 3.4167709999999998 -2.1789079999999998 -6.0282790000000004 -2.0800000000000001 1 1 1
14 4 3.1353380000000000 -1.9001990000000000 -5.7079060000000004 -2.0800000000000001 1 1 1
15 4 2.8238569999999998 -1.4938590000000000 -5.5881559999999997 -2.0800000000000001 1 1 1
16 4 3.1877200000000001 -0.1219296000000000 -4.8120419999999999 -2.0800000000000001 1 1 1
17 4 2.7354669999999999 0.2458923000000000 -5.4538489999999999 -2.0800000000000001 1 1 1
18 4 2.2490440000000000 0.1934425000000000 -5.2056009999999997 -2.0800000000000001 1 1 1
19 4 1.8804820000000000 0.2047039000000000 -4.9387140000000000 -2.0800000000000001 1 1 1
20 4 1.9938670000000001 0.4889800000000000 -4.0007840000000003 -2.0800000000000001 1 1 1
21 4 2.3813510000000000 0.6380926000000000 -3.6410339999999999 -2.0800000000000001 1 1 1
22 4 2.3134310000000000 1.4774550000000000 -3.1450420000000001 -2.0800000000000001 1 1 1
23 4 1.8749430000000000 1.1699059999999999 -3.1925210000000002 -2.0800000000000001 1 1 1
24 4 1.3188460000000000 1.1406320000000001 -3.3671829999999998 -2.0800000000000001 1 1 1
25 4 0.6769695999999999 0.3530856000000000 -2.4031039999999999 -2.0800000000000001 1 1 1
26 4 0.2862443000000000 0.1192106000000000 -2.1299429999999999 -2.0800000000000001 1 1 1
27 4 0.1607573000000000 -0.1020515000000000 -1.6786639999999999 -2.0800000000000001 1 1 1
28 4 0.2556636000000000 -0.1555677000000000 -1.1869930000000000 -2.0800000000000001 1 1 1
29 4 -0.1280330000000000 0.3021133000000000 -0.4985449000000000 -2.0800000000000001 1 1 1
30 4 -0.1712981000000000 0.0269542000000000 -0.1264303000000000 -2.0800000000000001 1 1 1
31 5 0.2375416000000000 -0.4994632000000000 0.7307936000000000 2.0800000000000001 1 1 1
32 5 0.5770859000000000 0.1000049000000000 1.6068510000000000 2.0800000000000001 1 1 1
33 5 -0.4986595000000000 -0.4107308000000000 2.6605560000000001 2.0800000000000001 1 1 1
34 5 -0.6311743000000000 0.6717376000000000 1.6355150000000001 2.0800000000000001 1 1 1
35 5 -0.5087431000000000 1.0966380000000000 2.8490650000000000 2.0800000000000001 1 1 1
36 5 0.5556845000000000 1.0763440000000000 3.3029000000000002 2.0800000000000001 1 1 1
37 5 -0.4219859000000000 0.8576319999999999 3.3669530000000001 2.0800000000000001 1 1 1
38 5 -1.0737829999999999 2.2927919999999999 3.2323510000000000 2.0800000000000001 1 1 1
39 5 -0.5730608000000000 2.2833290000000002 2.7014179999999999 2.0800000000000001 1 1 1
40 5 -0.2675397000000000 2.4302540000000001 2.4730099999999999 2.0800000000000001 1 1 1
41 6 1.5400000000000000 -0.0954240000000000 -1.2271680000000000 0 2 1 1
42 6 1.5400000000000000 -0.0954240000000000 -0.9271680000000000 0 2 1 1
43 6 1.5400000000000000 -0.0954240000000000 -0.6271679999999999 0 2 1 1
44 6 1.5400000000000000 -0.0954240000000000 -0.3271680000000001 0 2 1 1
45 6 1.5400000000000000 -0.0954240000000000 -0.0271680000000000 0 2 1 1
46 6 1.5400000000000000 -0.0954240000000000 0.2728320000000000 0 2 1 1
47 6 1.5400000000000000 -0.0954240000000000 0.5728319999999998 0 2 1 1
48 6 1.5026949060527737 0.2014607511054275 -1.2271680000000000 0 2 1 1
49 6 1.5026949060527737 0.2014607511054275 -0.9271680000000000 0 2 1 1
50 6 1.5026949060527737 0.2014607511054275 -0.6271679999999999 0 2 1 1
51 6 1.5026949060527737 0.2014607511054275 -0.3271680000000001 0 2 1 1
52 6 1.5026949060527737 0.2014607511054275 -0.0271680000000000 0 2 1 1
53 6 1.5026949060527737 0.2014607511054275 0.2728320000000000 0 2 1 1
54 6 1.5026949060527737 0.2014607511054275 0.5728319999999998 0 2 1 1
55 6 1.3930990742684473 0.4798866463250436 -1.2271680000000000 0 2 1 1
56 6 1.3930990742684473 0.4798866463250436 -0.9271680000000000 0 2 1 1
57 6 1.3930990742684473 0.4798866463250436 -0.6271679999999999 0 2 1 1
58 6 1.3930990742684473 0.4798866463250436 -0.3271680000000001 0 2 1 1
59 6 1.3930990742684473 0.4798866463250436 -0.0271680000000000 0 2 1 1
60 6 1.3930990742684473 0.4798866463250436 0.2728320000000000 0 2 1 1
61 6 1.3930990742684473 0.4798866463250436 0.5728319999999998 0 2 1 1
62 6 1.2180266426485848 0.7225425120280011 -1.2271680000000000 0 2 1 1
63 6 1.2180266426485848 0.7225425120280011 -0.9271680000000000 0 2 1 1
64 6 1.2180266426485848 0.7225425120280011 -0.6271679999999999 0 2 1 1
65 6 1.2180266426485848 0.7225425120280011 -0.3271680000000001 0 2 1 1
66 6 1.2180266426485848 0.7225425120280011 -0.0271680000000000 0 2 1 1
67 6 1.2180266426485848 0.7225425120280011 0.2728320000000000 0 2 1 1
68 6 1.2180266426485848 0.7225425120280011 0.5728319999999998 0 2 1 1
69 6 0.9883627670417676 0.9143411817694758 -1.2271680000000000 0 2 1 1
70 6 0.9883627670417676 0.9143411817694758 -0.9271680000000000 0 2 1 1
71 6 0.9883627670417676 0.9143411817694758 -0.6271679999999999 0 2 1 1
72 6 0.9883627670417676 0.9143411817694758 -0.3271680000000001 0 2 1 1
73 6 0.9883627670417676 0.9143411817694758 -0.0271680000000000 0 2 1 1
74 6 0.9883627670417676 0.9143411817694758 0.2728320000000000 0 2 1 1
75 6 0.9883627670417676 0.9143411817694758 0.5728319999999998 0 2 1 1
76 6 0.7183868348743224 1.0433575432267035 -1.2271680000000000 0 2 1 1
77 6 0.7183868348743224 1.0433575432267035 -0.9271680000000000 0 2 1 1
78 6 0.7183868348743224 1.0433575432267035 -0.6271679999999999 0 2 1 1
79 6 0.7183868348743224 1.0433575432267035 -0.3271680000000001 0 2 1 1
80 6 0.7183868348743224 1.0433575432267035 -0.0271680000000000 0 2 1 1
81 6 0.7183868348743224 1.0433575432267035 0.2728320000000000 0 2 1 1
82 6 0.7183868348743224 1.0433575432267035 0.5728319999999998 0 2 1 1
83 6 0.4248846420012433 1.1015699839248654 -1.2271680000000000 0 2 1 1
84 6 0.4248846420012433 1.1015699839248654 -0.9271680000000000 0 2 1 1
85 6 0.4248846420012433 1.1015699839248654 -0.6271679999999999 0 2 1 1
86 6 0.4248846420012433 1.1015699839248654 -0.3271680000000001 0 2 1 1
87 6 0.4248846420012433 1.1015699839248654 -0.0271680000000000 0 2 1 1
88 6 0.4248846420012433 1.1015699839248654 0.2728320000000000 0 2 1 1
89 6 0.4248846420012433 1.1015699839248654 0.5728319999999998 0 2 1 1
90 6 0.1261047332206095 1.0853591362487243 -1.2271680000000000 0 2 1 1
91 6 0.1261047332206095 1.0853591362487243 -0.9271680000000000 0 2 1 1
92 6 0.1261047332206095 1.0853591362487243 -0.6271679999999999 0 2 1 1
93 6 0.1261047332206095 1.0853591362487243 -0.3271680000000001 0 2 1 1
94 6 0.1261047332206095 1.0853591362487243 -0.0271680000000000 0 2 1 1
95 6 0.1261047332206095 1.0853591362487243 0.2728320000000000 0 2 1 1
96 6 0.1261047332206095 1.0853591362487243 0.5728319999999998 0 2 1 1
97 6 -0.1593762038565709 0.9957329121908181 -1.2271680000000000 0 2 1 1
98 6 -0.1593762038565709 0.9957329121908181 -0.9271680000000000 0 2 1 1
99 6 -0.1593762038565709 0.9957329121908181 -0.6271679999999999 0 2 1 1
100 6 -0.1593762038565709 0.9957329121908181 -0.3271680000000001 0 2 1 1
101 6 -0.1593762038565709 0.9957329121908181 -0.0271680000000000 0 2 1 1
102 6 -0.1593762038565709 0.9957329121908181 0.2728320000000000 0 2 1 1
103 6 -0.1593762038565709 0.9957329121908181 0.5728319999999998 0 2 1 1
104 6 -0.4138083472672869 0.8382638362655055 -1.2271680000000000 0 2 1 1
105 6 -0.4138083472672869 0.8382638362655055 -0.9271680000000000 0 2 1 1
106 6 -0.4138083472672869 0.8382638362655055 -0.6271679999999999 0 2 1 1
107 6 -0.4138083472672869 0.8382638362655055 -0.3271680000000001 0 2 1 1
108 6 -0.4138083472672869 0.8382638362655055 -0.0271680000000000 0 2 1 1
109 6 -0.4138083472672869 0.8382638362655055 0.2728320000000000 0 2 1 1
110 6 -0.4138083472672869 0.8382638362655055 0.5728319999999998 0 2 1 1
111 6 -0.6213723386563204 0.6227425729247478 -1.2271680000000000 0 2 1 1
112 6 -0.6213723386563204 0.6227425729247478 -0.9271680000000000 0 2 1 1
113 6 -0.6213723386563204 0.6227425729247478 -0.6271679999999999 0 2 1 1
114 6 -0.6213723386563204 0.6227425729247478 -0.3271680000000001 0 2 1 1
115 6 -0.6213723386563204 0.6227425729247478 -0.0271680000000000 0 2 1 1
116 6 -0.6213723386563204 0.6227425729247478 0.2728320000000000 0 2 1 1
117 6 -0.6213723386563204 0.6227425729247478 0.5728319999999998 0 2 1 1
118 6 -0.7691628543589561 0.3625691904627980 -1.2271680000000000 0 2 1 1
119 6 -0.7691628543589561 0.3625691904627980 -0.9271680000000000 0 2 1 1
120 6 -0.7691628543589561 0.3625691904627980 -0.6271679999999999 0 2 1 1
121 6 -0.7691628543589561 0.3625691904627980 -0.3271680000000001 0 2 1 1
122 6 -0.7691628543589561 0.3625691904627980 -0.0271680000000000 0 2 1 1
123 6 -0.7691628543589561 0.3625691904627980 0.2728320000000000 0 2 1 1
124 6 -0.7691628543589561 0.3625691904627980 0.5728319999999998 0 2 1 1
125 6 -0.8479909959205345 0.0739200096718401 -1.2271680000000000 0 2 1 1
126 6 -0.8479909959205345 0.0739200096718401 -0.9271680000000000 0 2 1 1
127 6 -0.8479909959205345 0.0739200096718401 -0.6271679999999999 0 2 1 1
128 6 -0.8479909959205345 0.0739200096718401 -0.3271680000000001 0 2 1 1
129 6 -0.8479909959205345 0.0739200096718401 -0.0271680000000000 0 2 1 1
130 6 -0.8479909959205345 0.0739200096718401 0.2728320000000000 0 2 1 1
131 6 -0.8479909959205345 0.0739200096718401 0.5728319999999998 0 2 1 1
132 6 -0.8529556112966554 -0.2252581614361301 -1.2271680000000000 0 2 1 1
133 6 -0.8529556112966554 -0.2252581614361301 -0.9271680000000000 0 2 1 1
134 6 -0.8529556112966554 -0.2252581614361301 -0.6271679999999999 0 2 1 1
135 6 -0.8529556112966554 -0.2252581614361301 -0.3271680000000001 0 2 1 1
136 6 -0.8529556112966554 -0.2252581614361301 -0.0271680000000000 0 2 1 1
137 6 -0.8529556112966554 -0.2252581614361301 0.2728320000000000 0 2 1 1
138 6 -0.8529556112966554 -0.2252581614361301 0.5728319999999998 0 2 1 1
139 6 -0.7837480247489554 -0.5163638732275437 -1.2271680000000000 0 2 1 1
140 6 -0.7837480247489554 -0.5163638732275437 -0.9271680000000000 0 2 1 1
141 6 -0.7837480247489554 -0.5163638732275437 -0.6271679999999999 0 2 1 1
142 6 -0.7837480247489554 -0.5163638732275437 -0.3271680000000001 0 2 1 1
143 6 -0.7837480247489554 -0.5163638732275437 -0.0271680000000000 0 2 1 1
144 6 -0.7837480247489554 -0.5163638732275437 0.2728320000000000 0 2 1 1
145 6 -0.7837480247489554 -0.5163638732275437 0.5728319999999998 0 2 1 1
146 6 -0.6446712288074727 -0.7812975824908124 -1.2271680000000000 0 2 1 1
147 6 -0.6446712288074727 -0.7812975824908124 -0.9271680000000000 0 2 1 1
148 6 -0.6446712288074727 -0.7812975824908124 -0.6271679999999999 0 2 1 1
149 6 -0.6446712288074727 -0.7812975824908124 -0.3271680000000001 0 2 1 1
150 6 -0.6446712288074727 -0.7812975824908124 -0.0271680000000000 0 2 1 1
151 6 -0.6446712288074727 -0.7812975824908124 0.2728320000000000 0 2 1 1
152 6 -0.6446712288074727 -0.7812975824908124 0.5728319999999998 0 2 1 1
153 6 -0.4443723450363343 -1.0035869943695137 -1.2271680000000000 0 2 1 1
154 6 -0.4443723450363343 -1.0035869943695137 -0.9271680000000000 0 2 1 1
155 6 -0.4443723450363343 -1.0035869943695137 -0.6271679999999999 0 2 1 1
156 6 -0.4443723450363343 -1.0035869943695137 -0.3271680000000001 0 2 1 1
157 6 -0.4443723450363343 -1.0035869943695137 -0.0271680000000000 0 2 1 1
158 6 -0.4443723450363343 -1.0035869943695137 0.2728320000000000 0 2 1 1
159 6 -0.4443723450363343 -1.0035869943695137 0.5728319999999998 0 2 1 1
160 6 -0.1953049878965503 -1.1694112298743007 -1.2271680000000000 0 2 1 1
161 6 -0.1953049878965503 -1.1694112298743007 -0.9271680000000000 0 2 1 1
162 6 -0.1953049878965503 -1.1694112298743007 -0.6271679999999999 0 2 1 1
163 6 -0.1953049878965503 -1.1694112298743007 -0.3271680000000001 0 2 1 1
164 6 -0.1953049878965503 -1.1694112298743007 -0.0271680000000000 0 2 1 1
165 6 -0.1953049878965503 -1.1694112298743007 0.2728320000000000 0 2 1 1
166 6 -0.1953049878965503 -1.1694112298743007 0.5728319999999998 0 2 1 1
167 6 0.0870450406830644 -1.2684601411981162 -1.2271680000000000 0 2 1 1
168 6 0.0870450406830644 -1.2684601411981162 -0.9271680000000000 0 2 1 1
169 6 0.0870450406830644 -1.2684601411981162 -0.6271679999999999 0 2 1 1
170 6 0.0870450406830644 -1.2684601411981162 -0.3271680000000001 0 2 1 1
171 6 0.0870450406830644 -1.2684601411981162 -0.0271680000000000 0 2 1 1
172 6 0.0870450406830644 -1.2684601411981162 0.2728320000000000 0 2 1 1
173 6 0.0870450406830644 -1.2684601411981162 0.5728319999999998 0 2 1 1
174 6 0.3851225834655719 -1.2945753467704535 -1.2271680000000000 0 2 1 1
175 6 0.3851225834655719 -1.2945753467704535 -0.9271680000000000 0 2 1 1
176 6 0.3851225834655719 -1.2945753467704535 -0.6271679999999999 0 2 1 1
177 6 0.3851225834655719 -1.2945753467704535 -0.3271680000000001 0 2 1 1
178 6 0.3851225834655719 -1.2945753467704535 -0.0271680000000000 0 2 1 1
179 6 0.3851225834655719 -1.2945753467704535 0.2728320000000000 0 2 1 1
180 6 0.3851225834655719 -1.2945753467704535 0.5728319999999998 0 2 1 1
181 6 0.6803946225558715 -1.2461331295957661 -1.2271680000000000 0 2 1 1
182 6 0.6803946225558715 -1.2461331295957661 -0.9271680000000000 0 2 1 1
183 6 0.6803946225558715 -1.2461331295957661 -0.6271679999999999 0 2 1 1
184 6 0.6803946225558715 -1.2461331295957661 -0.3271680000000001 0 2 1 1
185 6 0.6803946225558715 -1.2461331295957661 -0.0271680000000000 0 2 1 1
186 6 0.6803946225558715 -1.2461331295957661 0.2728320000000000 0 2 1 1
187 6 0.6803946225558715 -1.2461331295957661 0.5728319999999998 0 2 1 1
188 6 0.9545025726902097 -1.1261453921119098 -1.2271680000000000 0 2 1 1
189 6 0.9545025726902097 -1.1261453921119098 -0.9271680000000000 0 2 1 1
190 6 0.9545025726902097 -1.1261453921119098 -0.6271679999999999 0 2 1 1
191 6 0.9545025726902097 -1.1261453921119098 -0.3271680000000001 0 2 1 1
192 6 0.9545025726902097 -1.1261453921119098 -0.0271680000000000 0 2 1 1
193 6 0.9545025726902097 -1.1261453921119098 0.2728320000000000 0 2 1 1
194 6 0.9545025726902097 -1.1261453921119098 0.5728319999999998 0 2 1 1
195 6 1.1904037291495120 -0.9420723906844704 -1.2271680000000000 0 2 1 1
196 6 1.1904037291495120 -0.9420723906844704 -0.9271680000000000 0 2 1 1
197 6 1.1904037291495120 -0.9420723906844704 -0.6271679999999999 0 2 1 1
198 6 1.1904037291495120 -0.9420723906844704 -0.3271680000000001 0 2 1 1
199 6 1.1904037291495120 -0.9420723906844704 -0.0271680000000000 0 2 1 1
200 6 1.1904037291495120 -0.9420723906844704 0.2728320000000000 0 2 1 1
201 6 1.1904037291495120 -0.9420723906844704 0.5728319999999998 0 2 1 1
202 6 1.3734309005938250 -0.7053588929991101 -1.2271680000000000 0 2 1 1
203 6 1.3734309005938250 -0.7053588929991101 -0.9271680000000000 0 2 1 1
204 6 1.3734309005938250 -0.7053588929991101 -0.6271679999999999 0 2 1 1
205 6 1.3734309005938250 -0.7053588929991101 -0.3271680000000001 0 2 1 1
206 6 1.3734309005938250 -0.7053588929991101 -0.0271680000000000 0 2 1 1
207 6 1.3734309005938250 -0.7053588929991101 0.2728320000000000 0 2 1 1
208 6 1.3734309005938250 -0.7053588929991101 0.5728319999999998 0 2 1 1
209 6 1.4922043439804396 -0.4307225978387100 -1.2271680000000000 0 2 1 1
210 6 1.4922043439804396 -0.4307225978387100 -0.9271680000000000 0 2 1 1
211 6 1.4922043439804396 -0.4307225978387100 -0.6271679999999999 0 2 1 1
212 6 1.4922043439804396 -0.4307225978387100 -0.3271680000000001 0 2 1 1
213 6 1.4922043439804396 -0.4307225978387100 -0.0271680000000000 0 2 1 1
214 6 1.4922043439804396 -0.4307225978387100 0.2728320000000000 0 2 1 1
215 6 1.4922043439804396 -0.4307225978387100 0.5728319999999998 0 2 1 1
216 6 -9.6600000000000001 -10.0954239999999995 -1.2271680000000000 0 2 1 1
217 6 -9.6600000000000001 -10.0954239999999995 0.5728320000000000 0 2 1 1
218 6 -9.6600000000000001 -9.3954240000000002 -1.2271680000000000 0 2 1 1
219 6 -9.6600000000000001 -9.3954240000000002 0.5728320000000000 0 2 1 1
220 6 -9.6600000000000001 -8.6954239999999992 -1.2271680000000000 0 2 1 1
221 6 -9.6600000000000001 -8.6954239999999992 0.5728320000000000 0 2 1 1
222 6 -9.6600000000000001 -7.9954240000000008 -1.2271680000000000 0 2 1 1
223 6 -9.6600000000000001 -7.9954240000000008 0.5728320000000000 0 2 1 1
224 6 -9.6600000000000001 -7.2954240000000006 -1.2271680000000000 0 2 1 1
225 6 -9.6600000000000001 -7.2954240000000006 0.5728320000000000 0 2 1 1
226 6 -9.6600000000000001 -6.5954240000000004 -1.2271680000000000 0 2 1 1
227 6 -9.6600000000000001 -6.5954240000000004 0.5728320000000000 0 2 1 1
228 6 -9.6600000000000001 -5.8954240000000011 -1.2271680000000000 0 2 1 1
229 6 -9.6600000000000001 -5.8954240000000011 0.5728320000000000 0 2 1 1
230 6 -9.6600000000000001 -5.1954240000000009 -1.2271680000000000 0 2 1 1
231 6 -9.6600000000000001 -5.1954240000000009 0.5728320000000000 0 2 1 1
232 6 -9.6600000000000001 -4.4954240000000008 -1.2271680000000000 0 2 1 1
233 6 -9.6600000000000001 -4.4954240000000008 0.5728320000000000 0 2 1 1
234 6 -9.6600000000000001 -3.7954240000000001 -1.2271680000000000 0 2 1 1
235 6 -9.6600000000000001 -3.7954240000000001 0.5728320000000000 0 2 1 1
236 6 -9.6600000000000001 -3.0954240000000000 -1.2271680000000000 0 2 1 1
237 6 -9.6600000000000001 -3.0954240000000000 0.5728320000000000 0 2 1 1
238 6 -9.6600000000000001 -2.3954240000000007 -1.2271680000000000 0 2 1 1
239 6 -9.6600000000000001 -2.3954240000000007 0.5728320000000000 0 2 1 1
240 6 -9.6600000000000001 -1.6954240000000014 -1.2271680000000000 0 2 1 1
241 6 -9.6600000000000001 -1.6954240000000014 0.5728320000000000 0 2 1 1
242 6 -9.6600000000000001 -0.9954240000000003 -1.2271680000000000 0 2 1 1
243 6 -9.6600000000000001 -0.9954240000000003 0.5728320000000000 0 2 1 1
244 6 -9.6600000000000001 -0.2954240000000011 -1.2271680000000000 0 2 1 1
245 6 -9.6600000000000001 -0.2954240000000011 0.5728320000000000 0 2 1 1
246 6 -9.6600000000000001 0.4045760000000000 -1.2271680000000000 0 2 1 1
247 6 -9.6600000000000001 0.4045760000000000 0.5728320000000000 0 2 1 1
248 6 -9.6600000000000001 1.1045759999999993 -1.2271680000000000 0 2 1 1
249 6 -9.6600000000000001 1.1045759999999993 0.5728320000000000 0 2 1 1
250 6 -9.6600000000000001 1.8045759999999986 -1.2271680000000000 0 2 1 1
251 6 -9.6600000000000001 1.8045759999999986 0.5728320000000000 0 2 1 1
252 6 -9.6600000000000001 2.5045759999999997 -1.2271680000000000 0 2 1 1
253 6 -9.6600000000000001 2.5045759999999997 0.5728320000000000 0 2 1 1
254 6 -9.6600000000000001 3.2045759999999990 -1.2271680000000000 0 2 1 1
255 6 -9.6600000000000001 3.2045759999999990 0.5728320000000000 0 2 1 1
256 6 -9.6600000000000001 3.9045760000000000 -1.2271680000000000 0 2 1 1
257 6 -9.6600000000000001 3.9045760000000000 0.5728320000000000 0 2 1 1
258 6 -9.6600000000000001 4.6045759999999989 -1.2271680000000000 0 2 1 1
259 6 -9.6600000000000001 4.6045759999999989 0.5728320000000000 0 2 1 1
260 6 -9.6600000000000001 5.3045759999999982 -1.2271680000000000 0 2 1 1
261 6 -9.6600000000000001 5.3045759999999982 0.5728320000000000 0 2 1 1
262 6 -9.6600000000000001 6.0045759999999975 -1.2271680000000000 0 2 1 1
263 6 -9.6600000000000001 6.0045759999999975 0.5728320000000000 0 2 1 1
264 6 -9.6600000000000001 6.7045759999999968 -1.2271680000000000 0 2 1 1
265 6 -9.6600000000000001 6.7045759999999968 0.5728320000000000 0 2 1 1
266 6 -9.6600000000000001 7.4045759999999996 -1.2271680000000000 0 2 1 1
267 6 -9.6600000000000001 7.4045759999999996 0.5728320000000000 0 2 1 1
268 6 -9.6600000000000001 8.1045759999999998 -1.2271680000000000 0 2 1 1
269 6 -9.6600000000000001 8.1045759999999998 0.5728320000000000 0 2 1 1
270 6 -9.6600000000000001 8.8045759999999991 -1.2271680000000000 0 2 1 1
271 6 -9.6600000000000001 8.8045759999999991 0.5728320000000000 0 2 1 1
272 6 -9.6600000000000001 9.5045759999999984 -1.2271680000000000 0 2 1 1
273 6 -9.6600000000000001 9.5045759999999984 0.5728320000000000 0 2 1 1
274 6 -8.9600000000000009 -10.0954239999999995 -1.2271680000000000 0 2 1 1
275 6 -8.9600000000000009 -10.0954239999999995 0.5728320000000000 0 2 1 1
276 6 -8.9600000000000009 -9.3954240000000002 -1.2271680000000000 0 2 1 1
277 6 -8.9600000000000009 -9.3954240000000002 0.5728320000000000 0 2 1 1
278 6 -8.9600000000000009 -8.6954239999999992 -1.2271680000000000 0 2 1 1
279 6 -8.9600000000000009 -8.6954239999999992 0.5728320000000000 0 2 1 1
280 6 -8.9600000000000009 -7.9954240000000008 -1.2271680000000000 0 2 1 1
281 6 -8.9600000000000009 -7.9954240000000008 0.5728320000000000 0 2 1 1
282 6 -8.9600000000000009 -7.2954240000000006 -1.2271680000000000 0 2 1 1
283 6 -8.9600000000000009 -7.2954240000000006 0.5728320000000000 0 2 1 1
284 6 -8.9600000000000009 -6.5954240000000004 -1.2271680000000000 0 2 1 1
285 6 -8.9600000000000009 -6.5954240000000004 0.5728320000000000 0 2 1 1
286 6 -8.9600000000000009 -5.8954240000000011 -1.2271680000000000 0 2 1 1
287 6 -8.9600000000000009 -5.8954240000000011 0.5728320000000000 0 2 1 1
288 6 -8.9600000000000009 -5.1954240000000009 -1.2271680000000000 0 2 1 1
289 6 -8.9600000000000009 -5.1954240000000009 0.5728320000000000 0 2 1 1
290 6 -8.9600000000000009 -4.4954240000000008 -1.2271680000000000 0 2 1 1
291 6 -8.9600000000000009 -4.4954240000000008 0.5728320000000000 0 2 1 1
292 6 -8.9600000000000009 -3.7954240000000001 -1.2271680000000000 0 2 1 1
293 6 -8.9600000000000009 -3.7954240000000001 0.5728320000000000 0 2 1 1
294 6 -8.9600000000000009 -3.0954240000000000 -1.2271680000000000 0 2 1 1
295 6 -8.9600000000000009 -3.0954240000000000 0.5728320000000000 0 2 1 1
296 6 -8.9600000000000009 -2.3954240000000007 -1.2271680000000000 0 2 1 1
297 6 -8.9600000000000009 -2.3954240000000007 0.5728320000000000 0 2 1 1
298 6 -8.9600000000000009 -1.6954240000000014 -1.2271680000000000 0 2 1 1
299 6 -8.9600000000000009 -1.6954240000000014 0.5728320000000000 0 2 1 1
300 6 -8.9600000000000009 -0.9954240000000003 -1.2271680000000000 0 2 1 1
301 6 -8.9600000000000009 -0.9954240000000003 0.5728320000000000 0 2 1 1
302 6 -8.9600000000000009 -0.2954240000000011 -1.2271680000000000 0 2 1 1
303 6 -8.9600000000000009 -0.2954240000000011 0.5728320000000000 0 2 1 1
304 6 -8.9600000000000009 0.4045760000000000 -1.2271680000000000 0 2 1 1
305 6 -8.9600000000000009 0.4045760000000000 0.5728320000000000 0 2 1 1
306 6 -8.9600000000000009 1.1045759999999993 -1.2271680000000000 0 2 1 1
307 6 -8.9600000000000009 1.1045759999999993 0.5728320000000000 0 2 1 1
308 6 -8.9600000000000009 1.8045759999999986 -1.2271680000000000 0 2 1 1
309 6 -8.9600000000000009 1.8045759999999986 0.5728320000000000 0 2 1 1
310 6 -8.9600000000000009 2.5045759999999997 -1.2271680000000000 0 2 1 1
311 6 -8.9600000000000009 2.5045759999999997 0.5728320000000000 0 2 1 1
312 6 -8.9600000000000009 3.2045759999999990 -1.2271680000000000 0 2 1 1
313 6 -8.9600000000000009 3.2045759999999990 0.5728320000000000 0 2 1 1
314 6 -8.9600000000000009 3.9045760000000000 -1.2271680000000000 0 2 1 1
315 6 -8.9600000000000009 3.9045760000000000 0.5728320000000000 0 2 1 1
316 6 -8.9600000000000009 4.6045759999999989 -1.2271680000000000 0 2 1 1
317 6 -8.9600000000000009 4.6045759999999989 0.5728320000000000 0 2 1 1
318 6 -8.9600000000000009 5.3045759999999982 -1.2271680000000000 0 2 1 1
319 6 -8.9600000000000009 5.3045759999999982 0.5728320000000000 0 2 1 1
320 6 -8.9600000000000009 6.0045759999999975 -1.2271680000000000 0 2 1 1
321 6 -8.9600000000000009 6.0045759999999975 0.5728320000000000 0 2 1 1
322 6 -8.9600000000000009 6.7045759999999968 -1.2271680000000000 0 2 1 1
323 6 -8.9600000000000009 6.7045759999999968 0.5728320000000000 0 2 1 1
324 6 -8.9600000000000009 7.4045759999999996 -1.2271680000000000 0 2 1 1
325 6 -8.9600000000000009 7.4045759999999996 0.5728320000000000 0 2 1 1
326 6 -8.9600000000000009 8.1045759999999998 -1.2271680000000000 0 2 1 1
327 6 -8.9600000000000009 8.1045759999999998 0.5728320000000000 0 2 1 1
328 6 -8.9600000000000009 8.8045759999999991 -1.2271680000000000 0 2 1 1
329 6 -8.9600000000000009 8.8045759999999991 0.5728320000000000 0 2 1 1
330 6 -8.9600000000000009 9.5045759999999984 -1.2271680000000000 0 2 1 1
331 6 -8.9600000000000009 9.5045759999999984 0.5728320000000000 0 2 1 1
332 6 -8.2599999999999998 -10.0954239999999995 -1.2271680000000000 0 2 1 1
333 6 -8.2599999999999998 -10.0954239999999995 0.5728320000000000 0 2 1 1
334 6 -8.2599999999999998 -9.3954240000000002 -1.2271680000000000 0 2 1 1
335 6 -8.2599999999999998 -9.3954240000000002 0.5728320000000000 0 2 1 1
336 6 -8.2599999999999998 -8.6954239999999992 -1.2271680000000000 0 2 1 1
337 6 -8.2599999999999998 -8.6954239999999992 0.5728320000000000 0 2 1 1
338 6 -8.2599999999999998 -7.9954240000000008 -1.2271680000000000 0 2 1 1
339 6 -8.2599999999999998 -7.9954240000000008 0.5728320000000000 0 2 1 1
340 6 -8.2599999999999998 -7.2954240000000006 -1.2271680000000000 0 2 1 1
341 6 -8.2599999999999998 -7.2954240000000006 0.5728320000000000 0 2 1 1
342 6 -8.2599999999999998 -6.5954240000000004 -1.2271680000000000 0 2 1 1
343 6 -8.2599999999999998 -6.5954240000000004 0.5728320000000000 0 2 1 1
344 6 -8.2599999999999998 -5.8954240000000011 -1.2271680000000000 0 2 1 1
345 6 -8.2599999999999998 -5.8954240000000011 0.5728320000000000 0 2 1 1
346 6 -8.2599999999999998 -5.1954240000000009 -1.2271680000000000 0 2 1 1
347 6 -8.2599999999999998 -5.1954240000000009 0.5728320000000000 0 2 1 1
348 6 -8.2599999999999998 -4.4954240000000008 -1.2271680000000000 0 2 1 1
349 6 -8.2599999999999998 -4.4954240000000008 0.5728320000000000 0 2 1 1
350 6 -8.2599999999999998 -3.7954240000000001 -1.2271680000000000 0 2 1 1
351 6 -8.2599999999999998 -3.7954240000000001 0.5728320000000000 0 2 1 1
352 6 -8.2599999999999998 -3.0954240000000000 -1.2271680000000000 0 2 1 1
353 6 -8.2599999999999998 -3.0954240000000000 0.5728320000000000 0 2 1 1
354 6 -8.2599999999999998 -2.3954240000000007 -1.2271680000000000 0 2 1 1
355 6 -8.2599999999999998 -2.3954240000000007 0.5728320000000000 0 2 1 1
356 6 -8.2599999999999998 -1.6954240000000014 -1.2271680000000000 0 2 1 1
357 6 -8.2599999999999998 -1.6954240000000014 0.5728320000000000 0 2 1 1
358 6 -8.2599999999999998 -0.9954240000000003 -1.2271680000000000 0 2 1 1
359 6 -8.2599999999999998 -0.9954240000000003 0.5728320000000000 0 2 1 1
360 6 -8.2599999999999998 -0.2954240000000011 -1.2271680000000000 0 2 1 1
361 6 -8.2599999999999998 -0.2954240000000011 0.5728320000000000 0 2 1 1
362 6 -8.2599999999999998 0.4045760000000000 -1.2271680000000000 0 2 1 1
363 6 -8.2599999999999998 0.4045760000000000 0.5728320000000000 0 2 1 1
364 6 -8.2599999999999998 1.1045759999999993 -1.2271680000000000 0 2 1 1
365 6 -8.2599999999999998 1.1045759999999993 0.5728320000000000 0 2 1 1
366 6 -8.2599999999999998 1.8045759999999986 -1.2271680000000000 0 2 1 1
367 6 -8.2599999999999998 1.8045759999999986 0.5728320000000000 0 2 1 1
368 6 -8.2599999999999998 2.5045759999999997 -1.2271680000000000 0 2 1 1
369 6 -8.2599999999999998 2.5045759999999997 0.5728320000000000 0 2 1 1
370 6 -8.2599999999999998 3.2045759999999990 -1.2271680000000000 0 2 1 1
371 6 -8.2599999999999998 3.2045759999999990 0.5728320000000000 0 2 1 1
372 6 -8.2599999999999998 3.9045760000000000 -1.2271680000000000 0 2 1 1
373 6 -8.2599999999999998 3.9045760000000000 0.5728320000000000 0 2 1 1
374 6 -8.2599999999999998 4.6045759999999989 -1.2271680000000000 0 2 1 1
375 6 -8.2599999999999998 4.6045759999999989 0.5728320000000000 0 2 1 1
376 6 -8.2599999999999998 5.3045759999999982 -1.2271680000000000 0 2 1 1
377 6 -8.2599999999999998 5.3045759999999982 0.5728320000000000 0 2 1 1
378 6 -8.2599999999999998 6.0045759999999975 -1.2271680000000000 0 2 1 1
379 6 -8.2599999999999998 6.0045759999999975 0.5728320000000000 0 2 1 1
380 6 -8.2599999999999998 6.7045759999999968 -1.2271680000000000 0 2 1 1
381 6 -8.2599999999999998 6.7045759999999968 0.5728320000000000 0 2 1 1
382 6 -8.2599999999999998 7.4045759999999996 -1.2271680000000000 0 2 1 1
383 6 -8.2599999999999998 7.4045759999999996 0.5728320000000000 0 2 1 1
384 6 -8.2599999999999998 8.1045759999999998 -1.2271680000000000 0 2 1 1
385 6 -8.2599999999999998 8.1045759999999998 0.5728320000000000 0 2 1 1
386 6 -8.2599999999999998 8.8045759999999991 -1.2271680000000000 0 2 1 1
387 6 -8.2599999999999998 8.8045759999999991 0.5728320000000000 0 2 1 1
388 6 -8.2599999999999998 9.5045759999999984 -1.2271680000000000 0 2 1 1
389 6 -8.2599999999999998 9.5045759999999984 0.5728320000000000 0 2 1 1
390 6 -7.5600000000000005 -10.0954239999999995 -1.2271680000000000 0 2 1 1
391 6 -7.5600000000000005 -10.0954239999999995 0.5728320000000000 0 2 1 1
392 6 -7.5600000000000005 -9.3954240000000002 -1.2271680000000000 0 2 1 1
393 6 -7.5600000000000005 -9.3954240000000002 0.5728320000000000 0 2 1 1
394 6 -7.5600000000000005 -8.6954239999999992 -1.2271680000000000 0 2 1 1
395 6 -7.5600000000000005 -8.6954239999999992 0.5728320000000000 0 2 1 1
396 6 -7.5600000000000005 -7.9954240000000008 -1.2271680000000000 0 2 1 1
397 6 -7.5600000000000005 -7.9954240000000008 0.5728320000000000 0 2 1 1
398 6 -7.5600000000000005 -7.2954240000000006 -1.2271680000000000 0 2 1 1
399 6 -7.5600000000000005 -7.2954240000000006 0.5728320000000000 0 2 1 1