ITEM: TIMESTEP
10040000
ITEM: NUMBER OF ATOMS
40
ITEM: BOX BOUNDS pp pp pp
-1.0000000000000000e+01 1.0000000000000000e+01
-1.0000000000000000e+01 1.0000000000000000e+01
-1.5000000000000000e+02 1.5000000000000000e+02
ITEM: ATOMS id type xu yu zu 
1 5  5.471788e+00 -2.592094e-01 -8.346034e+00 
2 5  5.278480e+00 -4.983627e-01 -8.123640e+00 
3 5  4.051110e+00 -8.548798e-01 -8.048560e+00 
4 5  3.066727e+00 -3.353258e-01 -8.147608e+00 
5 5  3.588688e+00 -6.897196e-01 -6.968162e+00 
6 5  3.827643e+00 -1.687327e+00 -7.586993e+00 
7 5  3.026070e+00 -1.317203e+00 -7.422789e+00 
8 5  3.173916e+00 -2.526559e+00 -7.627972e+00 
9 5  3.525675e+00 -2.047266e+00 -6.881245e+00 
10 5  3.538189e+00 -1.722755e+00 -6.830436e+00 
11 4  3.827099e+00 -1.714148e+00 -6.405173e+00 
12 4  3.877667e+00 -1.805605e+00 -5.909278e+00 
13 4  3.868086e+00 -1.537076e+00 -5.464102e+00 
14 4  3.728882e+00 -1.124040e+00 -5.136680e+00 
15 4  3.951395e+00 -1.325607e+00 -4.862419e+00 
16 4  2.921480e+00 -4.748144e-01 -4.184240e+00 
17 4  2.782262e+00  6.193833e-03 -4.547344e+00 
18 4  2.448117e+00  3.238125e-01 -4.692635e+00 
19 4  2.191450e+00  7.009147e-01 -4.685153e+00 
20 4  5.936730e-01  4.643267e-01 -4.451352e+00 
21 4  2.594839e-01  6.974993e-01 -4.127842e+00 
22 4  2.291358e-01  1.773775e+00 -3.770582e+00 
23 4  1.137194e-01  1.332857e+00 -3.459124e+00 
24 4  1.100406e-01  9.915172e-01 -3.026878e+00 
25 4  3.186271e-01  9.504930e-01 -2.528357e+00 
26 4  3.855813e-01 -2.513692e-01 -1.527895e+00 
27 4  1.498510e-01  1.755168e-02 -1.124759e+00 
28 4  2.333436e-01  2.842705e-01 -6.439197e-01 
29 4 -7.101718e-02  1.114316e-01 -1.226621e-01 
30 4  8.876432e-03 -3.837488e-02  3.970941e-01 
31 5  6.222700e-01 -5.913583e-02  1.184898e+00 
32 5  1.975983e-01  6.677100e-01  1.630908e+00 
33 5  6.559698e-01  1.023179e+00  1.790973e+00 
34 5  3.477376e-01  5.232724e-01  2.245798e+00 
35 5  2.676296e-01  7.047812e-01  2.373780e+00 
36 5  7.460870e-01  9.110486e-01  3.314063e+00 
37 5  1.235737e+00  5.752687e-01  2.979176e+00 
38 5  1.184418e+00  2.072854e+00  3.212244e+00 
39 5  1.470569e+00  2.418902e+00  3.122192e+00 
40 5  2.438870e+00  1.902232e+00  3.943332e+00 
ITEM: TIMESTEP
10060000
ITEM: NUMBER OF ATOMS
40
ITEM: BOX BOUNDS pp pp pp
-1.0000000000000000e+01 1.0000000000000000e+01
-1.0000000000000000e+01 1.0000000000000000e+01
-1.5000000000000000e+02 1.5000000000000000e+02
ITEM: ATOMS id type xu yu zu 
1 5  5.153585e+00 -6.369667e-01 -8.372586e+00 
2 5  4.847159e+00 -6.886771e-01 -7.727336e+00 
3 5  3.678774e+00 -2.546343e-01 -7.860521e+00 
4 5  2.922387e+00 -3.632541e-01 -8.033726e+00 
5 5  3.064662e+00 -6.435828e-01 -6.691254e+00 
6 5  3.459429e+00 -1.382234e+00 -7.465894e+00 
7 5  2.980506e+00 -1.143708e+00 -7.898861e+00 
8 5  3.111463e+00 -2.132498e+00 -7.881044e+00 
9 5  3.579572e+00 -2.139151e+00 -7.288033e+00 
10 5  3.417703e+00 -1.934277e+00 -7.050979e+00 
11 4  3.744680e+00 -1.828593e+00 -6.489096e+00 
12 4  3.911186e+00 -1.767408e+00 -6.037835e+00 
13 4  3.866014e+00 -1.546272e+00 -5.534224e+00 
14 4  3.732144e+00 -1.227891e+00 -5.237156e+00 
15 4  3.481709e+00 -1.349181e+00 -4.513003e+00 
16 4  2.638720e+00 -3.603224e-01 -4.073724e+00 
17 4  2.655501e+00 -2.344496e-02 -4.406734e+00 
18 4  2.434736e+00  4.129783e-01 -4.665295e+00 
19 4  2.122356e+00  8.452935e-01 -4.682466e+00 
20 4  5.286631e-01  4.409954e-01 -4.676131e+00 
21 4  4.131667e-01  7.382656e-01 -4.351355e+00 
22 4  4.317757e-01  1.410283e+00 -3.491352e+00 
23 4  2.626838e-01  1.320061e+00 -2.979017e+00 
24 4  2.289378e-01  8.886124e-01 -2.602914e+00 
25 4  2.861952e-01  7.589234e-01 -2.141902e+00 
26 4  2.704663e-01 -1.494698e-01 -1.134974e+00 
27 4  5.820080e-02 -2.912050e-02 -7.006722e-01 
28 4  8.605229e-02  9.306148e-02 -2.741374e-01 
29 4 -3.096367e-01 -9.300845e-02  3.207852e-02 
30 4 -2.480243e-01 -1.816391e-01  4.622919e-01 
31 5  5.703397e-01  4.339372e-02  1.318856e+00 
32 5  3.679803e-01  1.004360e+00  1.692767e+00 
33 5  3.447383e-01  1.033287e+00  1.909040e+00 
34 5  2.431585e-01  8.542816e-01  2.276559e+00 
35 5  1.398060e-01  8.758762e-01  2.722070e+00 
36 5  8.879481e-01  7.594360e-01  3.618461e+00 
37 5  1.283186e+00  7.434110e-01  2.751326e+00 
38 5  1.061247e+00  2.295190e+00  3.444057e+00 
39 5  1.376985e+00  2.431871e+00  2.386815e+00 
40 5  2.606785e+00  1.869542e+00  3.377977e+00 
ITEM: TIMESTEP
10080000
ITEM: NUMBER OF ATOMS
40
ITEM: BOX BOUNDS pp pp pp
-1.0000000000000000e+01 1.0000000000000000e+01
-1.0000000000000000e+01 1.0000000000000000e+01
-1.5000000000000000e+02 1.5000000000000000e+02
ITEM: ATOMS id type xu yu zu 
1 5  5.205625e+00 -6.060113e-01 -7.458448e+00 
2 5  4.772384e+00 -7.214919e-01 -8.042965e+00 
3 5  3.848648e+00 -6.142834e-02 -7.982322e+00 
4 5  3.076725e+00 -2.241098e-01 -7.651479e+00 
5 5  3.346461e+00 -5.901985e-01 -6.516763e+00 
6 5  3.240200e+00 -1.377709e+00 -7.396159e+00 
7 5  2.973636e+00 -1.442917e+00 -7.842898e+00 
8 5  3.186494e+00 -1.869511e+00 -7.454866e+00 
9 5  3.888249e+00 -2.086278e+00 -7.207037e+00 
10 5  3.675921e+00 -2.216304e+00 -7.226993e+00 
11 4  3.508277e+00 -1.620334e+00 -6.464181e+00 
12 4  3.757092e+00 -1.698610e+00 -5.971952e+00 
13 4  3.767941e+00 -1.527186e+00 -5.488582e+00 
14 4  3.494511e+00 -1.362384e+00 -5.045389e+00 
15 4  3.120901e+00 -1.315441e+00 -4.201526e+00 
16 4  2.451996e+00 -1.878301e-01 -4.209894e+00 
17 4  2.427366e+00  2.524034e-01 -4.506628e+00 
18 4  2.151658e+00  6.528261e-01 -4.561523e+00 
19 4  1.803374e+00  9.796049e-01 -4.285251e+00 
20 4  4.453159e-01  2.831937e-01 -4.529672e+00 
21 4  3.610686e-01  5.721654e-01 -4.188162e+00 
22 4  9.528136e-01  1.490109e+00 -3.530854e+00 
23 4  5.796127e-01  1.253767e+00 -3.164634e+00 
24 4  1.408947e-01  1.144590e+00 -2.700980e+00 
25 4  1.997917e-01  1.014510e+00 -2.233080e+00 
26 4  2.870687e-01 -9.001256e-02 -1.260128e+00 
27 4  4.272482e-02 -1.152284e-02 -7.652394e-01 
28 4  2.313630e-02 -2.357869e-02 -2.731895e-01 
29 4 -4.078761e-01  3.691394e-02  3.964875e-01 
30 4 -2.535841e-01 -3.259174e-01  6.726422e-01 
31 5  3.647760e-01  9.194065e-02  1.070447e+00 
32 5 -1.449463e-01  9.523493e-01  1.453183e+00 
33 5 -1.263635e-01  1.685633e+00  1.928168e+00 
34 5 -7.818407e-02  1.020844e+00  2.603142e+00 
35 5 -2.146156e-02  7.917548e-01  2.737307e+00 
36 5  7.638958e-01  8.067246e-01  3.551802e+00 
37 5  7.399847e-01  8.145065e-01  2.543074e+00 
38 5  9.168824e-01  2.230657e+00  3.339100e+00 
39 5  1.295495e+00  2.121267e+00  2.772024e+00 
40 5  2.225303e+00  1.546094e+00  3.807286e+00 
ITEM: TIMESTEP
10100000
ITEM: NUMBER OF ATOMS
40
ITEM: BOX BOUNDS pp pp pp
-1.0000000000000000e+01 1.0000000000000000e+01
-1.0000000000000000e+01 1.0000000000000000e+01
-1.5000000000000000e+02 1.5000000000000000e+02
ITEM: ATOMS id type xu yu zu 
1 5  5.025571e+00 -6.569380e-01 -7.614566e+00 
2 5  4.595525e+00 -4.429579e-01 -8.027581e+00 
3 5  3.931344e+00  4.099502e-01 -7.809039e+00 
4 5  2.953478e+00 -2.286035e-01 -7.291335e+00 
5 5  3.954473e+00 -7.080322e-01 -6.660801e+00 
6 5  3.266616e+00 -1.339094e+00 -7.098504e+00 
7 5  3.114644e+00 -1.515534e+00 -8.033881e+00 
8 5  3.116368e+00 -2.063607e+00 -7.510043e+00 
9 5  3.938579e+00 -1.652774e+00 -7.342651e+00 
10 5  3.658643e+00 -1.896097e+00 -7.172756e+00 
11 4  3.339897e+00 -1.431873e+00 -6.251311e+00 
12 4  3.614720e+00 -1.658227e+00 -5.860531e+00 
13 4  3.709895e+00 -1.676696e+00 -5.355190e+00 
14 4  3.612836e+00 -1.758233e+00 -4.873863e+00 
15 4  3.226845e+00 -9.168084e-01 -4.798859e+00 
16 4  2.893286e+00 -2.658231e-01 -4.254946e+00 
17 4  2.628111e+00  1.104078e-01 -4.404797e+00 
18 4  2.213870e+00  4.319306e-01 -4.149340e+00 
19 4  1.660219e+00  6.576893e-01 -4.187790e+00 
20 4  1.630950e-01  5.502423e-01 -4.251330e+00 
21 4  2.983404e-01  9.010479e-01 -3.975074e+00 
22 4  5.604008e-01  1.664777e+00 -3.550258e+00 
23 4  2.875680e-01  1.305575e+00 -3.172137e+00 
24 4  2.781527e-01  1.154667e+00 -2.702838e+00 
25 4  3.397845e-01  1.054350e+00 -2.168913e+00 
26 4  3.498883e-01 -9.512306e-02 -1.105066e+00 
27 4  5.092154e-02  1.712057e-02 -6.129834e-01 
28 4  7.849259e-02  2.972420e-01 -1.123542e-01 
29 4 -4.656389e-01  6.572459e-02  5.540013e-01 
30 4 -2.662206e-01 -2.199393e-01  8.845825e-01 
31 5  3.110093e-01  3.128176e-01  7.370599e-01 
32 5 -1.786657e-01  1.238067e+00  1.758726e+00 
33 5  2.070417e-01  1.935195e+00  1.673373e+00 
34 5 -1.029809e-02  1.014315e+00  2.566363e+00 
35 5 -2.896121e-02  7.989094e-01  2.780167e+00 
36 5  5.096917e-01  1.489103e+00  3.516762e+00 
37 5  1.020899e+00  7.653133e-01  3.218795e+00 
38 5  1.165267e+00  2.155592e+00  3.642723e+00 
39 5  1.528711e+00  2.166767e+00  2.563468e+00 
40 5  2.372124e+00  1.836040e+00  3.818844e+00 
ITEM: TIMESTEP
10120000
ITEM: NUMBER OF ATOMS
40
ITEM: BOX BOUNDS pp pp pp
-1.0000000000000000e+01 1.0000000000000000e+01
-1.0000000000000000e+01 1.0000000000000000e+01
-1.5000000000000000e+02 1.5000000000000000e+02
ITEM: ATOMS id type xu yu zu 
1 5  5.066724e+00 -3.246373e-02 -7.100612e+00 
2 5  4.547371e+00 -8.608364e-02 -7.842524e+00 
3 5  3.671271e+00  5.893760e-01 -7.461342e+00 
4 5  2.688240e+00 -5.802379e-01 -7.280831e+00 
5 5  3.409099e+00 -1.109570e+00 -6.431359e+00 
6 5  2.678338e+00 -1.309717e+00 -6.794770e+00 
7 5  3.074241e+00 -1.457293e+00 -7.853545e+00 
8 5  3.370246e+00 -2.207689e+00 -7.674557e+00 
9 5  3.865937e+00 -1.943422e+00 -7.029327e+00 
10 5  3.126077e+00 -1.777758e+00 -7.321451e+00 
11 4  3.282702e+00 -1.452614e+00 -5.878262e+00 
12 4  3.566550e+00 -1.756253e+00 -5.676316e+00 
13 4  3.672722e+00 -1.902940e+00 -5.191627e+00 
14 4  3.607790e+00 -2.020212e+00 -4.808146e+00 
15 4  3.242632e+00 -1.145358e+00 -4.536280e+00 
16 4  2.973838e+00 -4.029858e-01 -4.053187e+00 
17 4  2.744906e+00  1.245630e-02 -4.155674e+00 
18 4  2.338671e+00  3.071873e-01 -4.093662e+00 
19 4  1.921889e+00  3.717038e-01 -3.941346e+00 
20 4  3.356105e-01  2.693354e-01 -4.169617e+00 
21 4  2.165919e-01  5.570589e-01 -3.818418e+00 
22 4  3.850589e-01  1.479341e+00 -3.513391e+00 
23 4  2.649995e-01  1.262553e+00 -3.036170e+00 
24 4  4.113186e-01  1.159017e+00 -2.511025e+00 
25 4  6.459927e-01  1.011695e+00 -2.114423e+00 
26 4  3.475494e-01  2.923793e-02 -1.193257e+00 
27 4  2.103785e-01 -7.261364e-02 -7.034666e-01 
28 4  2.272145e-01 -7.991915e-02 -2.374571e-01 
29 4 -5.388311e-01 -1.742852e-01  7.440751e-01 
30 4 -1.668901e-01 -3.130240e-01  1.016269e+00 
31 5  3.503043e-01  2.881488e-01  7.260374e-01 
32 5  4.260087e-01  9.101869e-01  1.774350e+00 
33 5  5.633708e-01  1.751703e+00  1.593594e+00 
34 5 -1.061258e-01  1.170030e+00  2.437663e+00 
35 5 -3.722189e-01  6.028676e-01  2.638068e+00 
36 5  1.896353e-01  1.332260e+00  3.725238e+00 
37 5  6.404948e-01  7.112974e-01  3.192917e+00 
38 5  7.777648e-01  1.971185e+00  3.953042e+00 
39 5  1.020634e+00  1.854194e+00  2.547339e+00 
40 5  2.111296e+00  1.628656e+00  3.333602e+00 
ITEM: TIMESTEP
10140000
ITEM: NUMBER OF ATOMS
40
ITEM: BOX BOUNDS pp pp pp
-1.0000000000000000e+01 1.0000000000000000e+01
-1.0000000000000000e+01 1.0000000000000000e+01
-1.5000000000000000e+02 1.5000000000000000e+02
ITEM: ATOMS id type xu yu zu 
1 5  4.542065e+00 -1.332404e-01 -6.885184e+00 
2 5  4.509737e+00 -4.319747e-01 -7.591344e+00 
3 5  3.405967e+00  4.589116e-01 -7.335130e+00 
4 5  2.912662e+00 -6.796569e-01 -7.386266e+00 
5 5  3.236488e+00 -5.999569e-01 -6.135705e+00 
6 5  2.539644e+00 -1.693806e+00 -6.397451e+00 
7 5  2.831725e+00 -1.607671e+00 -7.787051e+00 
8 5  3.164157e+00 -2.375263e+00 -7.812759e+00 
9 5  3.789480e+00 -1.907778e+00 -7.073822e+00 
10 5  3.799001e+00 -2.158340e+00 -7.183983e+00 
11 4  3.287858e+00 -1.609896e+00 -6.056135e+00 
12 4  3.449458e+00 -1.955063e+00 -5.828801e+00 
13 4  3.645715e+00 -2.200664e+00 -5.370071e+00 
14 4  3.457745e+00 -2.150428e+00 -4.782715e+00 
15 4  3.098596e+00 -1.343616e+00 -4.347926e+00 
16 4  2.882326e+00 -4.683692e-01 -3.884007e+00 
17 4  2.571467e+00 -1.230566e-01 -4.032150e+00 
18 4  2.274094e+00  2.600552e-01 -3.855703e+00 
19 4  1.938566e+00  6.315115e-01 -3.594869e+00 
20 4  4.015375e-01  7.462450e-01 -3.825192e+00 
21 4  4.069312e-01  1.281242e+00 -3.787637e+00 
22 4  7.082386e-01  1.571896e+00 -3.264603e+00 
23 4  4.802980e-01  1.366557e+00 -2.825197e+00 
24 4  4.487851e-01  1.193122e+00 -2.409950e+00 
25 4  6.270903e-01  1.076557e+00 -1.981198e+00 
26 4  3.213224e-01 -6.410609e-02 -1.285351e+00 
27 4  2.813285e-01 -1.225368e-01 -8.395979e-01 
28 4  2.858100e-01 -5.085618e-02 -3.711370e-01 
29 4 -4.339864e-01 -3.156883e-01  7.033471e-01 
30 4 -2.975810e-01 -4.353687e-01  1.124710e+00 
31 5  4.957418e-01  4.096775e-01  8.820254e-01 
32 5  4.821277e-01  9.172256e-01  1.587286e+00 
33 5  6.298414e-01  1.588885e+00  1.588817e+00 
34 5  2.995858e-02  1.331535e+00  2.509464e+00 
35 5 -5.369830e-01  3.934986e-01  2.375534e+00 
36 5  1.024097e-01  1.091507e+00  3.632233e+00 
37 5  8.514398e-01  6.004356e-01  3.072038e+00 
38 5  1.926804e-01  1.732487e+00  3.903373e+00 
39 5  6.257824e-01  1.580439e+00  2.460312e+00 
40 5  1.642166e+00  1.794565e+00  2.913749e+00 
ITEM: TIMESTEP
10160000
ITEM: NUMBER OF ATOMS
40
ITEM: BOX BOUNDS pp pp pp
-1.0000000000000000e+01 1.0000000000000000e+01
-1.0000000000000000e+01 1.0000000000000000e+01
-1.5000000000000000e+02 1.5000000000000000e+02
ITEM: ATOMS id type xu yu zu 
1 5  4.666304e+00 -8.429636e-02 -6.581638e+00 
2 5  4.572248e+00 -1.393514e-01 -7.600116e+00 
3 5  3.595915e+00  3.261574e-01 -7.298150e+00 
4 5  2.727931e+00 -7.819416e-01 -7.698271e+00 
5 5  3.103181e+00 -6.249394e-01 -6.191120e+00 
6 5  2.393600e+00 -1.823146e+00 -6.861037e+00 
7 5  2.670342e+00 -1.842872e+00 -7.330966e+00 
8 5  3.258768e+00 -2.261223e+00 -7.599680e+00 
9 5  3.690751e+00 -2.259345e+00 -6.754531e+00 
10 5  3.772880e+00 -2.143024e+00 -7.204819e+00 
11 4  3.721654e+00 -1.342852e+00 -6.045004e+00 
12 4  3.752781e+00 -1.670524e+00 -5.733429e+00 
13 4  3.775741e+00 -1.890550e+00 -5.404110e+00 
14 4  3.684489e+00 -2.152668e+00 -5.006258e+00 
15 4  3.296624e+00 -1.472326e+00 -4.753590e+00 
16 4  2.873518e+00 -5.384090e-01 -3.815974e+00 
17 4  2.705993e+00 -3.165780e-02 -3.959607e+00 
18 4  2.383138e+00  3.608939e-01 -3.908819e+00 
19 4  2.054522e+00  7.744544e-01 -3.752750e+00 
20 4  5.234179e-01  7.133907e-01 -3.570363e+00 
21 4  1.847822e-01  9.941557e-01 -3.420209e+00 
22 4  8.830185e-01  1.215093e+00 -3.123656e+00 
23 4  5.738164e-01  1.244157e+00 -2.738243e+00 
24 4  4.060057e-01  1.056196e+00 -2.317445e+00 
25 4  5.048535e-01  7.723858e-01 -1.897081e+00 
26 4  1.728556e-01  1.896715e-02 -1.024099e+00 
27 4  2.101843e-01  1.076313e-02 -5.582832e-01 
28 4  3.737897e-01  3.304584e-01 -1.808797e-01 
29 4 -3.704778e-01 -4.129858e-01  7.454391e-01 
30 4 -2.537029e-01 -6.037161e-01  1.171821e+00 
31 5  6.793512e-01  4.513702e-01  1.144075e+00 
32 5  3.268888e-01  1.292770e+00  1.826050e+00 
33 5  8.447130e-01  1.849397e+00  1.699674e+00 
34 5  4.140209e-01  1.592774e+00  2.796398e+00 
35 5 -3.667408e-01  4.523894e-01  2.482870e+00 
36 5  2.054103e-02  1.532737e+00  3.635137e+00 
37 5  8.839954e-01  1.072233e+00  3.450787e+00 
38 5  4.456890e-01  2.001818e+00  4.034815e+00 
39 5  7.494171e-01  1.817059e+00  2.630644e+00 
40 5  1.330534e+00  2.021935e+00  2.570823e+00 
ITEM: TIMESTEP
10180000
ITEM: NUMBER OF ATOMS
40
ITEM: BOX BOUNDS pp pp pp
-1.0000000000000000e+01 1.0000000000000000e+01
-1.0000000000000000e+01 1.0000000000000000e+01
-1.5000000000000000e+02 1.5000000000000000e+02
ITEM: ATOMS id type xu yu zu 
1 5  4.888647e+00 -5.124479e-01 -7.055451e+00 
2 5  4.358519e+00  1.142093e-01 -7.513655e+00 
3 5  3.496112e+00 -4.697287e-03 -7.334849e+00 
4 5  2.914023e+00 -4.963267e-01 -7.753947e+00 
5 5  3.498521e+00 -7.017058e-01 -6.461809e+00 
6 5  3.061844e+00 -1.876033e+00 -6.525235e+00 
7 5  3.069263e+00 -2.092806e+00 -7.087235e+00 
8 5  3.664506e+00 -1.809984e+00 -7.349383e+00 
9 5  3.953818e+00 -2.417531e+00 -6.944731e+00 
10 5  3.700909e+00 -2.030149e+00 -6.697030e+00 
11 4  3.544212e+00 -1.227096e+00 -5.738627e+00 
12 4  3.795489e+00 -1.562665e+00 -5.529752e+00 
13 4  3.931823e+00 -1.786350e+00 -5.061867e+00 
14 4  3.781792e+00 -1.913890e+00 -4.596534e+00 
15 4  3.215780e+00 -1.408369e+00 -4.368062e+00 
16 4  2.772087e+00 -4.973804e-01 -3.855835e+00 
17 4  2.573108e+00 -9.570418e-02 -4.046184e+00 
18 4  2.277395e+00  4.265535e-01 -3.975019e+00 
19 4  1.951055e+00  7.755179e-01 -3.806405e+00 
20 4  4.154365e-01  4.584839e-01 -3.490771e+00 
21 4  1.931840e-01  7.630742e-01 -3.215991e+00 
22 4  8.772959e-01  1.358893e+00 -2.996506e+00 
23 4  5.458293e-01  1.312818e+00 -2.641996e+00 
24 4  2.943484e-01  1.201867e+00 -2.200147e+00 
25 4  3.339423e-01  8.362418e-01 -1.862120e+00 
26 4  3.285060e-01 -2.187674e-01 -7.518045e-01 
27 4  1.862399e-01 -1.024755e-01 -3.021242e-01 
28 4  5.994495e-02  2.973027e-01 -2.641070e-02 
29 4 -7.226730e-01 -1.074595e-01  1.100276e+00 
30 4 -6.076816e-01 -4.796010e-01  1.442123e+00 
31 5  4.197733e-01  1.565792e-01  1.350168e+00 
32 5  5.818947e-01  1.130840e+00  1.589890e+00 
33 5  8.761467e-01  1.614561e+00  1.738440e+00 
34 5  2.590337e-01  1.101394e+00  2.559317e+00 
35 5 -4.441714e-01  8.306328e-01  2.207188e+00 
36 5 -1.428132e-01  1.496567e+00  3.685597e+00 
37 5  5.390215e-01  1.369817e+00  3.987958e+00 
38 5  6.025868e-01  2.274339e+00  3.884480e+00 
39 5  5.616254e-01  1.581777e+00  2.742237e+00 
40 5  1.268354e+00  1.743821e+00  2.749118e+00 
ITEM: TIMESTEP
10200000
ITEM: NUMBER OF ATOMS
40
ITEM: BOX BOUNDS pp pp pp
-1.0000000000000000e+01 1.0000000000000000e+01
-1.0000000000000000e+01 1.0000000000000000e+01
-1.5000000000000000e+02 1.5000000000000000e+02
ITEM: ATOMS id type xu yu zu 
1 5  4.961582e+00 -2.979164e-01 -7.104910e+00 
2 5  4.064050e+00  2.308911e-01 -7.082213e+00 
3 5  3.427479e+00  7.386819e-02 -7.800355e+00 
4 5  2.942779e+00 -1.019832e-01 -7.236771e+00 
5 5  3.414871e+00 -7.494238e-01 -6.040131e+00 
6 5  2.571239e+00 -1.725847e+00 -6.336210e+00 
7 5  3.114759e+00 -1.914970e+00 -6.962950e+00 
8 5  3.597396e+00 -1.341133e+00 -7.350544e+00 
9 5  4.075684e+00 -1.963715e+00 -7.101516e+00 
10 5  3.912448e+00 -1.972990e+00 -6.720112e+00 
11 4  3.738832e+00 -1.072236e+00 -5.751736e+00 
12 4  3.964298e+00 -1.389865e+00 -5.468740e+00 
13 4  4.145421e+00 -1.568904e+00 -4.961164e+00 
14 4  4.010384e+00 -1.667908e+00 -4.519544e+00 
15 4  3.361636e+00 -1.295062e+00 -4.604615e+00 
16 4  2.726495e+00 -5.131585e-01 -3.750210e+00 
17 4  2.716962e+00  2.993064e-02 -4.010912e+00 
18 4  2.425053e+00  5.328206e-01 -4.046633e+00 
19 4  2.056734e+00  7.213876e-01 -3.827264e+00 
20 4  5.381298e-01  2.456074e-01 -3.615000e+00 
21 4  3.471315e-01  4.942441e-01 -3.136060e+00 
22 4  9.438453e-01  1.165833e+00 -2.571529e+00 
23 4  5.472270e-01  9.883674e-01 -2.324710e+00 
24 4  2.261108e-01  8.569745e-01 -1.914662e+00 
25 4  4.220908e-02  8.468088e-01 -1.406478e+00 
26 4  4.132453e-02 -1.117402e-01 -5.312984e-01 
27 4 -2.643678e-03 -3.432047e-02 -6.292678e-02 
28 4  2.281785e-02  2.725733e-01  3.519431e-01 
29 4 -6.815544e-01 -3.636176e-01  1.499914e+00 
30 4 -3.737239e-01 -7.699353e-01  1.660936e+00 
31 5  2.993802e-01  1.916132e-01  1.604847e+00 
32 5  7.662884e-01  7.592902e-01  1.449381e+00 
33 5  6.709006e-01  1.172352e+00  1.574527e+00 
34 5  3.697611e-01  1.253832e+00  2.531791e+00 
35 5 -4.608802e-01  9.954525e-01  2.140102e+00 
36 5 -2.195952e-01  1.800496e+00  3.514913e+00 
37 5  3.855657e-01  1.895820e+00  3.948708e+00 
38 5  7.718605e-01  1.874583e+00  3.862929e+00 
39 5  3.201048e-01  1.577684e+00  3.182947e+00 
40 5  1.647671e+00  1.391936e+00  2.865584e+00 
ITEM: TIMESTEP
10220000
ITEM: NUMBER OF ATOMS
40
ITEM: BOX BOUNDS pp pp pp
-1.0000000000000000e+01 1.0000000000000000e+01
-1.0000000000000000e+01 1.0000000000000000e+01
-1.5000000000000000e+02 1.5000000000000000e+02
ITEM: ATOMS id type xu yu zu 
1 5  4.953189e+00 -4.969900e-02 -7.345996e+00 
2 5  4.026165e+00  4.564180e-02 -7.060412e+00 
3 5  3.492562e+00 -1.591164e-01 -7.632717e+00 
4 5  3.155935e+00 -6.179614e-02 -7.227305e+00 
5 5  3.416088e+00 -6.048638e-01 -6.119039e+00 
6 5  3.011589e+00 -1.605439e+00 -6.687560e+00 
7 5  2.907945e+00 -2.130833e+00 -6.811868e+00 
8 5  3.610190e+00 -1.651776e+00 -7.125025e+00 
9 5  3.997541e+00 -2.213153e+00 -6.651647e+00 
10 5  3.817990e+00 -1.802139e+00 -7.033308e+00 
11 4  3.698608e+00 -1.108818e+00 -5.849774e+00 
12 4  3.901866e+00 -1.361299e+00 -5.676326e+00 
13 4  4.071342e+00 -1.555739e+00 -5.265043e+00 
14 4  3.973197e+00 -1.807192e+00 -4.787071e+00 
15 4  3.733011e+00 -1.381572e+00 -4.204234e+00 
16 4  2.826291e+00 -2.467214e-01 -3.707257e+00 
17 4  2.809067e+00  2.173099e-01 -3.973433e+00 
18 4  2.543254e+00  7.165798e-01 -4.082310e+00 
19 4  2.145384e+00  9.654176e-01 -3.945308e+00 
20 4  7.440776e-01  9.258555e-01 -3.586355e+00 
21 4  5.717647e-01  1.012168e+00 -3.152603e+00 
22 4  9.637809e-01  1.175319e+00 -2.369895e+00 
23 4  5.624625e-01  1.105324e+00 -2.117487e+00 
24 4  2.968507e-01  8.147336e-01 -1.875901e+00 
25 4  9.818034e-02  6.523078e-01 -1.419791e+00 
26 4  7.654018e-02 -1.596931e-01 -2.364011e-01 
27 4  8.013059e-03  9.049952e-02  2.290391e-01 
28 4  5.373340e-03  5.376868e-01  4.177240e-01 
29 4 -9.692372e-01 -1.472508e-01  1.293782e+00 
30 4 -8.158763e-01 -5.611034e-01  1.589444e+00 
31 5  1.327229e-01  2.381739e-01  1.353338e+00 
32 5  5.454456e-01  7.360079e-01  9.608906e-01 
33 5  6.184047e-01  8.611098e-01  1.521645e+00 
34 5  5.989480e-01  9.126677e-01  2.653179e+00 
35 5 -4.692593e-01  1.139385e+00  1.740536e+00 
36 5 -4.918421e-01  1.637011e+00  3.283169e+00 
37 5  1.228430e-03  1.794126e+00  3.646277e+00 
38 5  8.361174e-01  1.506180e+00  3.593739e+00 
39 5  5.170532e-01  2.024063e+00  3.584644e+00 
40 5  1.554850e+00  1.561804e+00  3.082045e+00 
ITEM: TIMESTEP
10240000
ITEM: NUMBER OF ATOMS
40
ITEM: BOX BOUNDS pp pp pp
-1.0000000000000000e+01 1.0000000000000000e+01
-1.0000000000000000e+01 1.0000000000000000e+01
-1.5000000000000000e+02 1.5000000000000000e+02
ITEM: ATOMS id type xu yu zu 
1 5  5.041692e+00 -4.738284e-01 -7.382483e+00 
2 5  4.052089e+00 -1.559936e-01 -7.188393e+00 
3 5  3.617302e+00  6.320962e-02 -7.745913e+00 
4 5  3.363734e+00 -1.729606e-02 -6.898310e+00 
5 5  3.539998e+00 -4.899489e-01 -6.203436e+00 
6 5  3.115187e+00 -1.889738e+00 -6.721072e+00 
7 5  2.968291e+00 -2.434812e+00 -6.837422e+00 
8 5  3.274111e+00 -1.689709e+00 -7.349702e+00 
9 5  3.960300e+00 -2.252025e+00 -6.947891e+00 
10 5  3.607198e+00 -1.543721e+00 -6.694234e+00 
11 4  3.544244e+00 -1.127644e+00 -5.608435e+00 
12 4  3.764818e+00 -1.528861e+00 -5.409369e+00 
13 4  3.952733e+00 -1.680091e+00 -4.938488e+00 
14 4  3.880692e+00 -1.723486e+00 -4.395736e+00 
15 4  3.526008e+00 -9.404656e-01 -4.095543e+00 
16 4  3.048961e+00 -6.327671e-02 -3.672180e+00 
17 4  2.913084e+00  4.330290e-01 -3.728835e+00 
18 4  2.572613e+00  7.556852e-01 -3.852381e+00 
19 4  2.101795e+00  1.050476e+00 -3.867197e+00 
20 4  6.714395e-01  8.753020e-01 -3.337609e+00 
21 4  5.021311e-01  1.231822e+00 -2.937460e+00 
22 4  7.055064e-01  1.273436e+00 -2.357882e+00 
23 4  3.544784e-01  9.811432e-01 -2.217079e+00 
24 4  8.070807e-02  6.698688e-01 -1.915143e+00 
25 4 -1.967373e-01  5.024993e-01 -1.480271e+00 
26 4  2.801479e-01 -1.533566e-01 -2.524221e-01 
27 4  7.744630e-02 -8.456457e-02  2.328459e-01 
28 4 -1.072100e-01  2.508620e-01  5.976388e-01 
29 4 -8.431178e-01 -3.600976e-01  1.341412e+00 
30 4 -7.033120e-01 -6.362289e-01  1.684296e+00 
31 5  6.622972e-01 -7.511743e-02  1.916904e+00 
32 5  3.959815e-01  2.243024e-01  1.450020e+00 
33 5  6.196917e-01  4.550445e-01  1.339919e+00 
34 5  7.514063e-01  8.182382e-01  2.289178e+00 
35 5 -2.401709e-01  1.073000e+00  1.283996e+00 
36 5 -2.540573e-01  1.486430e+00  2.900786e+00 
37 5 -7.288248e-02  1.969248e+00  3.075441e+00 
38 5  8.145330e-01  1.486906e+00  3.939569e+00 
39 5  8.209283e-01  1.719867e+00  3.592891e+00 
40 5  1.281771e+00  1.418769e+00  2.090810e+00 
ITEM: TIMESTEP
10260000
ITEM: NUMBER OF ATOMS
40
ITEM: BOX BOUNDS pp pp pp
-1.0000000000000000e+01 1.0000000000000000e+01
-1.0000000000000000e+01 1.0000000000000000e+01
-1.5000000000000000e+02 1.5000000000000000e+02
ITEM: ATOMS id type xu yu zu 
1 5  4.897662e+00 -5.268837e-01 -7.516104e+00 
2 5  4.191702e+00 -1.690724e-01 -7.574550e+00 
3 5  3.703247e+00 -5.858879e-01 -7.729469e+00 
4 5  3.516766e+00 -1.017473e-01 -6.568711e+00 
5 5  3.720731e+00 -4.824558e-01 -5.868984e+00 
6 5  3.080451e+00 -1.807668e+00 -6.696239e+00 
7 5  2.677786e+00 -2.264964e+00 -6.408820e+00 
8 5  3.146992e+00 -1.824277e+00 -7.383451e+00 
9 5  3.768558e+00 -2.217004e+00 -7.021288e+00 
10 5  3.697014e+00 -1.949067e+00 -6.730063e+00 
11 4  3.574924e+00 -1.480013e+00 -5.818500e+00 
12 4  3.793161e+00 -1.621003e+00 -5.295429e+00 
13 4  3.863615e+00 -1.660271e+00 -4.825265e+00 
14 4  3.689617e+00 -1.593223e+00 -4.310376e+00 
15 4  3.123998e+00 -1.006538e+00 -3.706427e+00 
16 4  3.054209e+00  8.854409e-03 -2.930691e+00 
17 4  3.089656e+00  3.895688e-01 -3.337030e+00 
18 4  2.753046e+00  5.934726e-01 -3.634263e+00 
19 4  2.345026e+00  9.168504e-01 -3.655879e+00 
20 4  7.385365e-01  1.093606e+00 -3.281230e+00 
21 4  6.501820e-01  1.366500e+00 -2.859938e+00 
22 4  4.778863e-01  1.229637e+00 -2.475996e+00 
23 4  9.499349e-02  9.461865e-01 -2.295155e+00 
24 4 -1.899289e-01  6.070824e-01 -1.938842e+00 
25 4 -1.891321e-01  5.240963e-01 -1.456670e+00 
26 4  2.905658e-01 -1.811346e-01 -1.731342e-01 
27 4  6.918716e-02 -1.461298e-01  2.272760e-01 
28 4  2.723991e-02  6.302617e-02  7.121666e-01 
29 4 -7.587366e-01 -2.669070e-01  1.632072e+00 
30 4 -7.409155e-01 -6.251400e-01  1.948000e+00 
31 5  6.469304e-01  5.208137e-03  2.234743e+00 
32 5  6.341103e-01  4.019100e-01  1.463367e+00 
33 5  5.284384e-01  7.084603e-01  1.259453e+00 
34 5  1.680036e-01  7.534557e-01  2.496344e+00 
35 5 -4.541530e-01  9.817193e-01  1.730807e+00 
36 5 -4.363618e-01  1.445774e+00  3.027440e+00 
37 5 -4.997661e-01  1.894064e+00  3.305541e+00 
38 5  7.165501e-01  1.716918e+00  3.909307e+00 
39 5  6.729760e-01  1.353118e+00  3.613318e+00 
40 5  1.104280e+00  1.702157e+00  2.558894e+00 
ITEM: TIMESTEP
10280000
ITEM: NUMBER OF ATOMS
40
ITEM: BOX BOUNDS pp pp pp
-1.0000000000000000e+01 1.0000000000000000e+01
-1.0000000000000000e+01 1.0000000000000000e+01
-1.5000000000000000e+02 1.5000000000000000e+02
ITEM: ATOMS id type xu yu zu 
1 5  4.662402e+00 -1.072747e+00 -7.585442e+00 
2 5  4.412871e+00  5.633959e-02 -7.826815e+00 
3 5  3.926006e+00 -3.989446e-01 -7.897165e+00 
4 5  3.632454e+00  3.757219e-02 -6.785744e+00 
5 5  3.878048e+00 -4.777958e-01 -6.233825e+00 
6 5  2.978460e+00 -1.555901e+00 -7.153931e+00 
7 5  2.834652e+00 -2.117749e+00 -7.246688e+00 
8 5  3.032008e+00 -1.853348e+00 -7.179029e+00 
9 5  3.696041e+00 -2.081730e+00 -7.068892e+00 
10 5  3.370700e+00 -1.595614e+00 -6.875378e+00 
11 4  3.244652e+00 -1.441546e+00 -5.655651e+00 
12 4  3.526561e+00 -1.635813e+00 -5.333127e+00 
13 4  3.496103e+00 -1.611128e+00 -4.895036e+00 
14 4  3.313877e+00 -1.543436e+00 -4.341203e+00 
15 4  3.281786e+00 -6.718173e-01 -3.981706e+00 
16 4  3.390942e+00  3.275710e-01 -2.945664e+00 
17 4  3.149012e+00  4.773447e-01 -3.307100e+00 
18 4  2.797203e+00  7.631318e-01 -3.481584e+00 
19 4  2.421081e+00  1.169068e+00 -3.658298e+00 
20 4  8.113738e-01  1.019067e+00 -3.154399e+00 
21 4  6.090735e-01  1.291041e+00 -2.718721e+00 
22 4  2.880549e-01  1.269309e+00 -2.644045e+00 
23 4 -6.512356e-02  1.092427e+00 -2.190513e+00 
24 4 -1.759627e-01  8.143872e-01 -1.742085e+00 
25 4 -9.078275e-02  5.854583e-01 -1.320812e+00 
26 4  7.162373e-02 -1.382136e-01 -1.098535e-01 
27 4  8.130763e-02 -6.559829e-02  4.348027e-01 
28 4  1.853322e-01  2.213777e-01  7.657636e-01 
29 4 -9.042982e-01 -1.459457e-01  1.893515e+00 
30 4 -7.721257e-01 -6.050418e-01  1.972340e+00 
31 5  3.852154e-01  3.879766e-01  2.223943e+00 
32 5  5.812936e-01  6.719496e-01  1.488735e+00 
33 5  6.101321e-02  6.284781e-01  1.274500e+00 
34 5 -1.987869e-01  7.978783e-01  2.218454e+00 
35 5 -2.002992e-01  9.042037e-01  1.787483e+00 
36 5 -5.372461e-01  1.310570e+00  2.493717e+00 
37 5 -8.040314e-01  1.656778e+00  3.356407e+00 
38 5  2.740801e-01  1.546705e+00  3.743771e+00 
39 5  6.913866e-01  1.977102e+00  3.183362e+00 
40 5  1.754349e+00  1.410545e+00  2.612092e+00 
ITEM: TIMESTEP
10300000
ITEM: NUMBER OF ATOMS
40
ITEM: BOX BOUNDS pp pp pp
-1.0000000000000000e+01 1.0000000000000000e+01
-1.0000000000000000e+01 1.0000000000000000e+01
-1.5000000000000000e+02 1.5000000000000000e+02
ITEM: ATOMS id type xu yu zu 
1 5  4.863803e+00 -6.786797e-01 -7.754265e+00 
2 5  4.402326e+00 -1.067753e-01 -7.873199e+00 
3 5  3.985376e+00 -6.015957e-02 -7.937972e+00 
4 5  2.999905e+00 -1.643073e-01 -6.957914e+00 
5 5  3.792611e+00 -7.700730e-01 -6.609282e+00 
6 5  2.795141e+00 -1.379752e+00 -7.407344e+00 
7 5  2.963405e+00 -2.404132e+00 -7.154862e+00 
8 5  3.093582e+00 -2.324019e+00 -7.129281e+00 
9 5  3.329843e+00 -2.048669e+00 -6.514801e+00 
10 5  3.838610e+00 -2.035905e+00 -6.196457e+00 
11 4  3.115918e+00 -1.433934e+00 -5.423869e+00 
12 4  3.313922e+00 -1.428233e+00 -4.947979e+00 
13 4  3.356625e+00 -1.322352e+00 -4.450219e+00 
14 4  3.143609e+00 -1.157848e+00 -4.008479e+00 
15 4  3.654587e+00 -4.384767e-01 -3.971536e+00 
16 4  2.842964e+00  3.235743e-01 -3.029128e+00 
17 4  2.702595e+00  6.126350e-01 -3.330625e+00 
18 4  2.358724e+00  9.345010e-01 -3.361817e+00 
19 4  1.966200e+00  1.253867e+00 -3.298042e+00 
20 4  6.182469e-01  7.882456e-01 -3.275683e+00 
21 4  5.798485e-01  9.757320e-01 -2.964711e+00 
22 4  4.252192e-01  8.406920e-01 -2.582274e+00 
23 4  3.064025e-03  7.151080e-01 -2.282378e+00 
24 4 -8.219100e-02  6.583942e-01 -1.784357e+00 
25 4 -7.496633e-02  6.904971e-01 -1.284139e+00 
26 4  1.055066e-01  1.455863e-03 -5.834952e-02 
27 4  9.432474e-02  2.027472e-02  4.593179e-01 
28 4  4.302274e-01  1.845739e-01  8.546311e-01 
29 4 -4.932699e-01 -3.175973e-02  1.946156e+00 
30 4 -3.890011e-01 -4.828846e-01  2.166968e+00 
31 5  3.716986e-01  4.937838e-01  2.278060e+00 
32 5  4.489377e-01  1.111250e+00  2.080180e+00 
33 5  3.410229e-01  8.545575e-01  1.351264e+00 
34 5 -1.079874e-01  1.008265e+00  1.886966e+00 
35 5 -5.237798e-01  1.019357e+00  1.458147e+00 