ITEM: TIMESTEP
10040000
ITEM: NUMBER OF ATOMS
40
ITEM: BOX BOUNDS pp pp pp
-1.0000000000000000e+01 1.0000000000000000e+01
-1.0000000000000000e+01 1.0000000000000000e+01
-1.5000000000000000e+02 1.5000000000000000e+02
ITEM: ATOMS id c_quat[1] c_quat[2] c_quat[3] c_quat[4] 
1  6.400430e-01  3.182742e-01  6.981240e-01  4.085788e-02 
2 -9.002766e-01 -3.332097e-01 -1.921766e-01 -2.038173e-01 
3 -8.290929e-01 -3.052812e-01 -6.711120e-02  4.635778e-01 
4 -5.833275e-01 -1.775602e-01 -2.875807e-01  7.385789e-01 
5 -1.209874e-01  6.677065e-01 -4.728757e-01  5.620665e-01 
6  2.430760e-01  6.289928e-01 -7.298866e-01 -1.120168e-01 
7  1.145168e-02  6.583319e-01 -3.619121e-01  6.599148e-01 
8 -6.193278e-01  1.869326e-01 -6.908107e-01  3.229083e-01 
9  9.586052e-01 -2.098655e-01  1.043321e-01  1.617015e-01 
10  5.710211e-02  2.020720e-01 -1.528063e-01  9.656896e-01 
11 -5.580769e-02 -7.893659e-01 -5.728402e-01 -2.136378e-01 
12  1.522225e-01  5.263425e-01  8.327906e-01  7.906731e-02 
13 -2.334604e-01 -1.701724e-01 -9.569506e-01  2.798283e-02 
14  2.594176e-01 -2.271171e-01  9.350752e-01 -8.218659e-02 
15  5.839210e-01  6.443909e-01 -4.145075e-01 -2.682912e-01 
16  7.186333e-02 -1.665385e-01  6.189465e-01 -7.642028e-01 
17  3.932907e-02  3.178398e-01 -6.281733e-01  7.091046e-01 
18 -3.629084e-01 -5.690660e-01  4.542037e-01 -5.815156e-01 
19  6.662206e-01  5.771837e-01 -3.124951e-01  3.540563e-01 
20 -4.768915e-01  1.065219e-02  2.041997e-01  8.548471e-01 
21  7.778888e-01 -1.109639e-01 -1.613551e-01 -5.971102e-01 
22 -2.538793e-01  9.557296e-01 -5.424013e-02  1.385074e-01 
23  1.824260e-01 -9.595185e-01 -1.738395e-01 -1.257968e-01 
24 -8.608757e-03  8.906741e-01  4.489538e-01  7.117573e-02 
25 -3.843638e-02 -7.190350e-01 -6.933427e-01 -2.805759e-02 
26 -7.678125e-01  4.567281e-01  3.211177e-01  3.142401e-01 
27 -8.654004e-01  4.809969e-01  1.371063e-01  3.042877e-02 
28  8.324198e-01 -4.771599e-01  1.431956e-01  2.426739e-01 
29 -3.296703e-01  3.960294e-01  8.429540e-01  1.546183e-01 
30 -1.298189e-01  3.039016e-01  9.253617e-01  1.857327e-01 
31  9.428101e-01 -2.269999e-01 -3.092092e-02  2.421242e-01 
32 -6.644839e-01 -1.378659e-01 -3.627393e-02 -7.335791e-01 
33  4.767244e-01  7.632219e-01  2.696402e-01  3.428124e-01 
34  7.158973e-01  6.770104e-01 -9.923278e-02  1.389273e-01 
35 -6.420660e-01 -4.630116e-01  3.900803e-01  4.703285e-01 
36  1.245837e-01  8.637360e-01 -4.619697e-01 -1.581864e-01 
37 -4.197738e-01  3.755631e-01 -7.565301e-01 -3.322717e-01 
38  1.825357e-01 -8.834178e-01 -3.323581e-01  2.753033e-01 
39  2.847223e-03  6.584218e-01 -1.880965e-01 -7.287609e-01 
40  6.423437e-01  3.228057e-01 -4.276665e-01  5.479895e-01 
ITEM: TIMESTEP
10060000
ITEM: NUMBER OF ATOMS
40
ITEM: BOX BOUNDS pp pp pp
-1.0000000000000000e+01 1.0000000000000000e+01
-1.0000000000000000e+01 1.0000000000000000e+01
-1.5000000000000000e+02 1.5000000000000000e+02
ITEM: ATOMS id c_quat[1] c_quat[2] c_quat[3] c_quat[4] 
1  7.102904e-01  3.545393e-01  6.035591e-01  7.420081e-02 
2 -8.374057e-01 -4.749525e-01  9.130045e-02 -2.546293e-01 
3 -6.561355e-01 -4.823605e-01 -3.828262e-01  4.361865e-01 
4 -6.957502e-01 -3.256254e-01 -3.393221e-01  5.429183e-01 
5 -2.428725e-01  6.466317e-01 -4.971004e-01  5.251396e-01 
6 -7.755386e-02  6.501968e-01 -7.380215e-01  1.629533e-01 
7  2.122365e-01  8.500665e-01 -3.776363e-01  2.995553e-01 
8 -5.518271e-01  4.917009e-01 -6.661953e-01  9.950316e-02 
9  9.618798e-01  2.049397e-02  2.590958e-02  2.714699e-01 
10 -2.906919e-01  2.384446e-01 -1.500451e-01  9.144008e-01 
11  1.222172e-02 -8.208440e-01 -5.709886e-01 -6.146751e-03 
12  5.324175e-02  5.524098e-01  8.317859e-01  1.187366e-02 
13 -2.099993e-01 -2.576049e-01 -9.396063e-01  8.173098e-02 
14  2.309526e-01 -1.358716e-01  9.631404e-01 -2.367071e-02 
15  7.985274e-01  1.679225e-01 -3.532078e-01 -4.576027e-01 
16  1.758398e-01  4.208278e-02  5.039467e-01 -8.445988e-01 
17  4.614235e-02  1.394407e-01 -5.618652e-01  8.140852e-01 
18 -3.726417e-01 -4.585121e-01  4.414976e-01 -6.752663e-01 
19  5.191511e-01  6.961150e-01 -3.268800e-01  3.729014e-01 
20 -4.528464e-01  1.450859e-01  1.859409e-01  8.598292e-01 
21  7.179631e-01 -1.935038e-01 -6.760475e-02 -6.652180e-01 
22 -2.161539e-01  8.976513e-01  6.038579e-02  3.792798e-01 
23  1.184912e-01 -9.709092e-01  4.366198e-02 -2.034425e-01 
24 -5.506181e-02  9.080599e-01  3.539776e-01  2.170143e-01 
25 -6.801303e-02 -7.566370e-01 -6.288542e-01 -1.655810e-01 
26 -7.626076e-01  3.793250e-01  1.632999e-01  4.978708e-01 
27 -9.005507e-01  4.291005e-01  2.186021e-02  6.635770e-02 
28  8.439988e-01 -4.033780e-01  1.605527e-01  3.149207e-01 
29 -7.012299e-02  4.656017e-01  7.722013e-01  4.266181e-01 
30  4.411418e-02  6.822011e-02  8.860699e-01  4.563772e-01 
31  8.689160e-01 -6.891697e-02  2.282509e-01  4.337476e-01 
32 -7.024963e-01 -3.570149e-01  1.553967e-01 -5.957274e-01 
33  3.656854e-01  5.218140e-01  4.408320e-01  6.321800e-01 
34  8.229518e-01  4.898701e-01 -2.444826e-01  1.516767e-01 
35 -6.951515e-01 -5.831494e-01  2.521279e-01  3.363520e-01 
36  1.343187e-01  6.978067e-01 -7.034967e-01  1.080043e-02 
37 -1.945987e-01  4.454767e-01 -8.105467e-01 -3.266434e-01 
38  3.307211e-01 -6.893969e-01 -4.719620e-01  4.388705e-01 
39 -1.195764e-01  1.724835e-01 -4.734564e-01 -8.554472e-01 
40  8.763224e-01  1.418992e-01 -3.320537e-01  3.188480e-01 
ITEM: TIMESTEP
10080000
ITEM: NUMBER OF ATOMS
40
ITEM: BOX BOUNDS pp pp pp
-1.0000000000000000e+01 1.0000000000000000e+01
-1.0000000000000000e+01 1.0000000000000000e+01
-1.5000000000000000e+02 1.5000000000000000e+02
ITEM: ATOMS id c_quat[1] c_quat[2] c_quat[3] c_quat[4] 
1  6.893043e-01  6.474630e-01 -3.351348e-02 -3.233080e-01 
2 -7.132753e-01 -6.688992e-01 -2.090885e-01 -9.701848e-03 
3 -3.726614e-01 -7.984743e-01 -4.213517e-01  2.145347e-01 
4 -6.603614e-01 -2.866195e-01 -5.660209e-01  4.017368e-01 
5  2.589928e-02  8.182690e-01 -3.722137e-01  4.372895e-01 
6 -3.307611e-01  6.557637e-01 -6.674172e-01  1.229849e-01 
7  4.613824e-01  6.421841e-01 -4.564820e-01  4.078603e-01 
8 -3.172016e-01  8.574610e-01 -3.797775e-01 -1.411128e-01 
9  9.101318e-01 -4.361269e-02 -3.052269e-02  4.108849e-01 
10 -2.785000e-01 -6.850830e-03  4.840206e-01  8.295269e-01 
11 -4.793383e-02 -8.105973e-01 -5.573424e-01 -1.732162e-01 
12  9.891126e-02  4.993446e-01  8.528288e-01  1.164241e-01 
13 -1.226478e-01 -8.338649e-02 -9.724897e-01 -1.796328e-01 
14  2.561721e-01 -2.800517e-01  9.243634e-01 -3.872008e-02 
15  8.682812e-01  2.712785e-02 -4.667930e-01 -1.656990e-01 
16  2.730036e-01  1.003271e-01  7.145132e-01 -6.362974e-01 
17  1.170958e-01  2.257752e-01 -7.446201e-01  6.171346e-01 
18 -2.885460e-01 -5.570120e-01  5.630571e-01 -5.380014e-01 
19  2.273720e-01  7.938246e-01 -2.768878e-01  4.914036e-01 
20 -4.355023e-01  2.466247e-01  1.355775e-01  8.550630e-01 
21  6.997107e-01 -3.842689e-01 -3.431608e-03 -6.022711e-01 
22 -1.157016e-01  9.006299e-01 -8.691464e-02  4.097862e-01 
23 -2.565693e-02 -9.473248e-01 -6.429479e-02 -3.127037e-01 
24  2.126226e-01  9.456945e-01  1.886452e-01  1.576910e-01 
25 -1.637781e-01 -6.789188e-01 -7.154593e-01 -1.907749e-02 
26 -8.141252e-01  2.993732e-01  2.806674e-01  4.108549e-01 
27 -9.150817e-01  3.945531e-01  8.317346e-02 -5.959239e-03 
28  7.906853e-01 -4.122310e-01  9.469887e-03  4.525403e-01 
29 -1.585978e-01  6.791996e-01  6.169607e-01  3.645466e-01 
30  5.363291e-02  2.248208e-01  8.384152e-01  4.935980e-01 
31  9.770346e-01  6.745709e-02  1.304895e-01  1.543548e-01 
32 -6.709253e-01 -5.539716e-01 -1.650754e-01 -4.644619e-01 
33  1.746596e-01  7.006865e-01  2.623913e-01  6.400651e-01 
34  8.284954e-01  2.401623e-01 -3.250740e-01  3.876137e-01 
35 -7.029397e-01 -5.409454e-01  2.132155e-01  4.096255e-01 
36  2.980570e-01  5.766468e-01 -7.605935e-01  1.174760e-02 
37  4.335317e-01  5.226179e-01 -6.559748e-01 -3.295722e-01 
38  7.512732e-01 -4.325537e-01 -2.941971e-01  4.024101e-01 
39  1.076400e-01  5.566323e-01 -2.376780e-01 -7.887226e-01 
40  9.590457e-01 -2.682862e-02 -2.734723e-01 -6.873425e-02 
ITEM: TIMESTEP
10100000
ITEM: NUMBER OF ATOMS
40
ITEM: BOX BOUNDS pp pp pp
-1.0000000000000000e+01 1.0000000000000000e+01
-1.0000000000000000e+01 1.0000000000000000e+01
-1.5000000000000000e+02 1.5000000000000000e+02
ITEM: ATOMS id c_quat[1] c_quat[2] c_quat[3] c_quat[4] 
1  4.823577e-01  8.530710e-01 -6.871975e-02  1.867577e-01 
2 -8.531007e-01 -4.032304e-01  9.157797e-02 -3.181789e-01 
3 -4.187171e-01 -8.750061e-01 -2.094696e-01 -1.231372e-01 
4 -7.187325e-01 -2.581210e-01 -3.564268e-01  5.382908e-01 
5 -2.302552e-01  8.283299e-01 -4.225639e-01  2.868656e-01 
6 -2.910709e-01  6.300857e-01 -7.162510e-01  7.248606e-02 
7  2.522424e-01  7.256828e-01 -6.296480e-01 -1.153332e-01 
8 -3.672278e-01  6.579188e-01 -6.431821e-01 -1.363940e-01 
9  7.999195e-01 -3.802955e-01 -9.685241e-02  4.540085e-01 
10 -7.083452e-01 -9.361949e-02  1.776407e-02  6.994047e-01 
11  2.382887e-01 -6.442199e-01 -6.322426e-01 -3.584250e-01 
12 -1.742924e-01  3.515743e-01  8.507613e-01  3.496037e-01 
13  1.186727e-01  9.751997e-02 -9.270177e-01 -3.421182e-01 
14  7.669725e-02 -5.226212e-01  8.084167e-01  2.597056e-01 
15  3.844610e-01  1.390691e-01 -7.003346e-01 -5.851333e-01 
16  2.420476e-01 -5.395477e-02  8.406483e-01 -4.814690e-01 
17  3.912739e-02  3.647826e-01 -7.453078e-01  5.567037e-01 
18  5.410428e-02 -5.360472e-01  6.925381e-01 -4.797052e-01 
19  8.790666e-02  7.889963e-01 -3.476155e-01  4.989196e-01 
20 -1.732908e-01  3.441664e-01  3.952678e-02  9.219314e-01 
21  5.597538e-01 -4.436991e-01  1.373962e-05 -6.998619e-01 
22 -2.447409e-01  9.083727e-01 -2.175603e-01  2.600549e-01 
23  4.420538e-02 -9.853403e-01  3.435913e-03 -1.647379e-01 
24  1.500697e-01  9.315416e-01  2.958238e-01  1.489886e-01 
25 -2.106951e-01 -7.188143e-01 -6.611146e-01 -4.290730e-02 
26 -8.094663e-01  3.068253e-01  3.344706e-01  3.724943e-01 
27 -8.764815e-01  4.535123e-01  1.597422e-01 -2.427339e-02 
28  7.407322e-01 -5.784601e-01  7.138301e-02  3.340720e-01 
29 -2.288308e-01  5.233650e-01  6.496328e-01  5.016999e-01 
30  4.027302e-02  6.129123e-02  7.854536e-01  6.145601e-01 
31  9.450516e-01  2.577186e-01  5.588405e-02  1.932240e-01 
32 -1.997596e-01 -6.151641e-01 -1.576572e-02 -7.625094e-01 
33  1.904141e-01  6.829526e-01  2.932298e-01  6.413537e-01 
34  6.653730e-01  2.482441e-01 -5.686831e-01  4.150340e-01 
35 -5.966182e-01 -5.141193e-01  5.571740e-01  2.632209e-01 
36 -9.829194e-02  6.451824e-01 -5.446690e-01  5.267012e-01 
37  5.994796e-01  4.231110e-01 -6.120411e-01 -2.949695e-01 
38  7.210335e-01 -6.069897e-01 -3.077552e-01  1.302345e-01 
39  1.639400e-01  5.442222e-01 -1.055279e-01 -8.159717e-01 
40  8.845720e-01  1.091460e-01 -4.414980e-01  1.034365e-01 
ITEM: TIMESTEP
10120000
ITEM: NUMBER OF ATOMS
40
ITEM: BOX BOUNDS pp pp pp
-1.0000000000000000e+01 1.0000000000000000e+01
-1.0000000000000000e+01 1.0000000000000000e+01
-1.5000000000000000e+02 1.5000000000000000e+02
ITEM: ATOMS id c_quat[1] c_quat[2] c_quat[3] c_quat[4] 
1  2.584808e-01  9.135680e-01 -1.922066e-01  2.482698e-01 
2 -8.440656e-01 -4.765727e-01  2.432482e-01  3.552397e-02 
3 -3.716067e-01 -8.378989e-01 -2.612188e-01 -3.026525e-01 
4 -5.478207e-01 -3.533289e-01  4.530155e-04  7.583211e-01 
5 -2.312495e-01  8.820426e-01 -4.102948e-01 -1.351689e-02 
6  1.827224e-01  6.336269e-01 -6.578914e-01  3.637422e-01 
7  3.546410e-01  5.237759e-01 -6.738005e-01 -3.819442e-01 
8 -5.780837e-02  5.838956e-01 -8.082751e-01  4.914729e-02 
9  6.100872e-01 -6.453132e-01 -1.378662e-01  4.385857e-01 
10 -3.052412e-01 -3.993234e-01  5.147277e-01  6.945675e-01 
11  3.939642e-01 -6.656227e-01 -5.777119e-01 -2.607443e-01 
12 -1.685414e-01  3.611248e-01  7.935359e-01  4.598733e-01 
13  2.238840e-02 -5.071026e-02 -8.730442e-01 -4.844802e-01 
14  1.372205e-01 -4.255574e-01  8.274750e-01  3.396417e-01 
15  2.727208e-01  7.740995e-02 -7.232278e-01 -6.297401e-01 
16  2.082003e-01 -4.846121e-02  7.567802e-01 -6.177279e-01 
17  2.456637e-02  4.248414e-01 -7.109974e-01  5.598115e-01 
18 -1.747960e-01 -6.570052e-01  5.525803e-01 -4.821260e-01 
19  4.268286e-01  7.539894e-01 -1.774736e-01  4.667125e-01 
20 -3.896195e-01  3.313055e-01  1.723282e-01  8.418648e-01 
21  7.598371e-01 -4.633907e-01  8.772993e-02 -4.474597e-01 
22 -1.686091e-01  9.624748e-01 -1.897620e-01  9.593561e-02 
23  1.267805e-01 -9.891164e-01  7.263084e-02  1.732538e-02 
24  3.381916e-02  9.835174e-01  1.096833e-01 -1.397117e-01 
25 -7.328580e-02 -8.520703e-01 -5.085902e-01  9.970653e-02 
26 -9.185228e-01  2.104263e-01  2.581941e-01  2.130081e-01 
27 -9.068882e-01  2.982519e-01  1.431803e-01 -2.609580e-01 
28  7.182115e-01 -3.464986e-01 -3.370206e-02  6.024742e-01 
29 -4.588281e-01  3.512108e-01  7.542091e-01  3.119236e-01 
30 -2.837560e-01  2.488087e-02  7.820780e-01  5.542719e-01 
31  9.469618e-01  1.504482e-01  2.491953e-01  1.361267e-01 
32 -6.752514e-02 -4.391533e-01  6.644834e-02 -8.934032e-01 
33  1.991643e-01  9.094931e-01  3.283235e-01  1.592468e-01 
34  2.597220e-01  3.844279e-01 -3.994145e-01  7.907134e-01 
35 -7.230602e-01 -1.897377e-01  4.159581e-03  6.642035e-01 
36  4.590238e-01  5.802372e-01 -4.515382e-01  4.987336e-01 
37  9.282208e-01  1.982909e-01 -1.920961e-01 -2.493712e-01 
38  6.785347e-01 -6.377128e-01 -3.637638e-01  2.426596e-02 
39  1.756631e-01  4.135020e-01 -4.820712e-01 -7.521741e-01 
40  7.979620e-01 -6.459807e-02 -4.405744e-01  4.061747e-01 
ITEM: TIMESTEP
10140000
ITEM: NUMBER OF ATOMS
40
ITEM: BOX BOUNDS pp pp pp
-1.0000000000000000e+01 1.0000000000000000e+01
-1.0000000000000000e+01 1.0000000000000000e+01
-1.5000000000000000e+02 1.5000000000000000e+02
ITEM: ATOMS id c_quat[1] c_quat[2] c_quat[3] c_quat[4] 
1  4.089814e-02  9.882979e-01 -1.398250e-01 -4.520499e-02 
2 -6.510483e-01 -7.166387e-01  2.232631e-01 -1.127771e-01 
3 -3.779641e-01 -7.164780e-01 -4.929367e-01 -3.175151e-01 
4 -5.203419e-01 -5.089552e-01 -4.423660e-01  5.239477e-01 
5 -3.109405e-01  9.285532e-01 -1.288087e-01  1.565673e-01 
6 -3.352285e-01  3.953470e-01 -5.913927e-01  6.177194e-01 
7  6.148099e-01  6.823599e-01 -3.058968e-01 -2.506410e-01 
8 -2.092466e-01  6.801848e-01 -6.752130e-01 -1.940409e-01 
9  5.194120e-01 -7.968147e-01  4.215296e-02  3.058115e-01 
10 -1.376631e-01 -1.744426e-01  7.162106e-01  6.615596e-01 
11  3.839212e-01 -7.122621e-01 -4.806501e-01 -3.380276e-01 
12 -2.303760e-01  3.913832e-01  7.308740e-01  5.094794e-01 
13 -3.800886e-02  3.362314e-03 -9.345452e-01 -3.537928e-01 
14  2.839918e-01 -3.973719e-01  8.500748e-01  1.970204e-01 
15  1.908871e-01 -1.972758e-02 -9.162844e-01 -3.515620e-01 
16 -9.515808e-03 -2.449480e-01  7.288297e-01 -6.393100e-01 
17  2.753987e-01  5.237970e-01 -5.555711e-01  5.840659e-01 
18 -3.223053e-01 -6.740615e-01  4.926503e-01 -4.461569e-01 
19  4.762980e-01  7.060271e-01 -4.268861e-01  3.040300e-01 
20 -4.687496e-01  4.266937e-01  3.785999e-01  6.744393e-01 
21  6.781308e-01 -3.342007e-01 -3.436400e-01 -5.570997e-01 
22 -1.539022e-01  8.595745e-01 -4.725634e-01  1.188684e-01 
23  1.729814e-01 -9.684701e-01  1.712427e-01 -5.309437e-02 
24  1.400708e-03  9.816709e-01  1.905031e-01  5.376296e-03 
25 -2.140606e-02 -8.334574e-01 -5.477279e-01  6.989004e-02 
26 -9.402105e-01  1.964767e-01  2.376685e-01  1.446199e-01 
27 -8.585315e-01  2.775858e-01  9.740158e-02 -4.199794e-01 
28  6.875436e-01 -2.068546e-01  7.094328e-02  6.924319e-01 
29 -2.999038e-01  5.557539e-01  6.942505e-01  3.452703e-01 
30 -1.522601e-01  2.550974e-01  8.771639e-01  3.772608e-01 
31  8.901692e-01  4.030870e-01  1.121981e-01  1.803642e-01 
32 -2.460430e-01 -5.370754e-02 -1.049227e-01 -9.620653e-01 
33  1.954754e-01  9.645060e-01  1.756291e-01 -2.592167e-02 
34  3.342877e-01  4.874185e-01 -1.430315e-01  7.938621e-01 
35 -5.682584e-01 -5.202094e-01 -3.167327e-01  5.533037e-01 
36  5.465530e-01  2.999965e-01 -5.509388e-01  5.547508e-01 
37  9.009506e-01  3.837919e-01 -6.744905e-02 -1.908991e-01 
38  5.018300e-01 -6.794796e-01 -3.892214e-01 -3.673974e-01 
39  3.361735e-01  4.405835e-01 -3.629439e-01 -7.490963e-01 
40  6.856694e-01 -2.010507e-02 -5.829814e-01  4.354146e-01 
ITEM: TIMESTEP
10160000
ITEM: NUMBER OF ATOMS
40
ITEM: BOX BOUNDS pp pp pp
-1.0000000000000000e+01 1.0000000000000000e+01
-1.0000000000000000e+01 1.0000000000000000e+01
-1.5000000000000000e+02 1.5000000000000000e+02
ITEM: ATOMS id c_quat[1] c_quat[2] c_quat[3] c_quat[4] 
1  2.003318e-01  8.561911e-01 -1.166602e-01  4.617298e-01 
2 -6.819118e-01 -6.987275e-01  7.476155e-02 -2.029453e-01 
3 -3.988668e-01 -7.782615e-01 -2.374583e-01 -4.228805e-01 
4 -6.449531e-01 -4.773172e-01 -3.106186e-01  5.096271e-01 
5 -3.297822e-01  8.830621e-01  1.953832e-01  2.706853e-01 
6 -4.097566e-01  3.534871e-01 -8.146321e-01  2.086167e-01 
7  7.472982e-01  5.977265e-01 -1.840504e-01  2.244858e-01 
8 -1.296477e-01  7.837561e-01 -4.445917e-01 -4.138310e-01 
9  4.190653e-01 -7.172642e-01  1.535760e-02  5.564894e-01 
10 -1.168343e-02 -1.185707e-01  6.524408e-01  7.484153e-01 
11  3.786161e-01 -6.794371e-01 -5.196497e-01 -3.535241e-01 
12 -1.641395e-01  5.197768e-01  6.417038e-01  5.395428e-01 
13 -8.935450e-03 -6.176437e-02 -7.988191e-01 -5.983255e-01 
14  2.689505e-01 -3.087348e-01  7.726469e-01  4.851446e-01 
15  4.482413e-01  1.504382e-01 -7.102645e-01 -5.215097e-01 
16 -8.309562e-02  2.755273e-02  7.745711e-01 -6.263990e-01 
17  2.310845e-01  3.645495e-01 -6.160524e-01  6.589257e-01 
18 -3.436496e-01 -6.252622e-01  4.659242e-01 -5.233228e-01 
19  4.937155e-01  7.562169e-01 -2.776650e-01  3.275411e-01 
20 -4.970133e-01  1.847583e-01  4.481452e-01  7.197277e-01 
21  7.539561e-01 -4.411609e-01 -2.300323e-01 -4.289667e-01 
22  9.212353e-02  6.509011e-01 -7.363550e-01  1.600697e-01 
23 -9.084046e-02 -9.003619e-01  4.176264e-01 -8.175962e-02 
24  2.550293e-02  9.989616e-01 -2.631225e-03  3.766193e-02 
25  4.528891e-02 -8.781829e-01 -4.721664e-01  6.166560e-02 
26 -8.770558e-01  3.484394e-01  1.331405e-01  3.027155e-01 
27 -8.472457e-01  4.760724e-01  1.709687e-02 -2.350267e-01 
28  4.935478e-01 -5.194755e-01  1.152009e-01  6.879567e-01 
29 -3.001776e-01  4.152843e-01  7.827098e-01  3.532672e-01 
30 -9.497662e-02  1.870329e-01  8.958244e-01  3.917866e-01 
31  7.553329e-01  3.208221e-01  3.073395e-01  4.817549e-01 
32 -4.951504e-01 -3.662098e-01 -2.001361e-01 -7.620118e-01 
33  4.469035e-01  8.271101e-01  1.239568e-01  3.174914e-01 
34  6.233767e-02  6.017692e-01  5.798819e-03  7.962124e-01 
35 -6.516723e-01 -2.859684e-01 -1.863500e-01  6.773618e-01 
36  2.866380e-01  2.281657e-01 -2.993663e-01  8.809988e-01 
37  7.609577e-01  6.475229e-01  3.077814e-02  2.665034e-02 
38  3.754972e-01 -6.568371e-01 -1.919124e-01 -6.250892e-01 
39  1.590371e-01  2.405572e-01 -7.795626e-01 -5.559870e-01 
40  4.920218e-01  3.116172e-01 -3.974303e-01  7.091251e-01 
ITEM: TIMESTEP
10180000
ITEM: NUMBER OF ATOMS
40
ITEM: BOX BOUNDS pp pp pp
-1.0000000000000000e+01 1.0000000000000000e+01
-1.0000000000000000e+01 1.0000000000000000e+01
-1.5000000000000000e+02 1.5000000000000000e+02
ITEM: ATOMS id c_quat[1] c_quat[2] c_quat[3] c_quat[4] 
1 -1.720802e-01  9.391837e-01 -5.649474e-02  2.917716e-01 
2 -4.551375e-01 -7.826064e-01 -1.387365e-01 -4.014091e-01 
3 -5.536189e-01 -5.084838e-01 -5.719965e-01 -3.282838e-01 
4 -7.217277e-01 -5.889479e-01 -2.502920e-01  2.638246e-01 
5 -8.332696e-02  9.113961e-01 -2.855354e-01  2.843999e-01 
6 -3.774987e-01  5.105350e-01 -7.725588e-01 -1.267902e-03 
7  6.090442e-01  7.863565e-01  8.790984e-02 -5.459429e-02 
8  1.318826e-01  8.085652e-01 -5.135665e-01 -2.551054e-01 
9  5.254916e-01 -7.755926e-01  3.139325e-01  1.541464e-01 
10  3.339844e-01 -3.603855e-01  5.914949e-01  6.393046e-01 
11  4.031993e-01 -6.451589e-01 -5.828496e-01 -2.854587e-01 
12 -2.071749e-01  4.458872e-01  7.375636e-01  4.628857e-01 
13 -4.539878e-02 -8.318078e-02 -8.927808e-01 -4.404115e-01 
14  1.671551e-01 -3.054241e-01  8.211465e-01  4.522098e-01 
15  5.832292e-01  2.395548e-01 -5.209091e-01 -5.754224e-01 
16  1.122297e-01 -6.558317e-02  7.883772e-01 -6.013025e-01 
17  1.873926e-01  2.987014e-01 -7.532241e-01  5.552612e-01 
18 -2.581771e-01 -5.552010e-01  5.765745e-01 -5.409790e-01 
19  4.032615e-01  7.260352e-01 -4.309104e-01  3.529436e-01 
20 -5.134855e-01  2.587104e-01  2.766492e-01  7.699784e-01 
21  7.539698e-01 -3.866215e-01 -1.388610e-01 -5.126118e-01 
22 -2.420070e-02  7.110604e-01 -6.674548e-01  2.197988e-01 
23  1.516688e-02 -9.227844e-01  3.495658e-01 -1.613773e-01 
24  7.868742e-02  9.934530e-01 -5.816383e-02  5.896030e-02 
25 -7.182291e-02 -9.099816e-01 -3.813427e-01 -1.461260e-01 
26 -8.556782e-01  3.739902e-01  3.537987e-01  5.265551e-02 
27 -6.753137e-01  5.685577e-01  1.237666e-01 -4.531835e-01 
28  3.896745e-01 -5.913400e-01  1.136416e-01  6.968187e-01 
29 -2.427278e-01  5.032334e-01  7.075616e-01  4.326613e-01 
30 -3.876925e-02  3.498445e-01  7.959557e-01  4.925042e-01 
31  8.988727e-01  3.716784e-01  6.070219e-03  2.320478e-01 
32 -4.305697e-01 -4.539354e-01 -1.341873e-01 -7.684700e-01 
33  7.463572e-03  7.469082e-01  5.163859e-01  4.188294e-01 
34 -5.240020e-01  5.769550e-01 -5.201024e-02  6.243715e-01 
35 -7.194114e-01 -4.136018e-01 -4.566897e-02  5.561431e-01 
36  4.973202e-01  2.350365e-01 -5.226604e-01  6.513498e-01 
37  6.006680e-01  6.033605e-01 -4.644063e-01  2.438868e-01 
38  6.232573e-02 -6.609228e-01 -2.295112e-01 -7.117733e-01 
39 -6.850005e-03 -1.662549e-01 -6.209951e-01 -7.659488e-01 
40  6.721947e-01  1.514701e-01 -5.788661e-01  4.360334e-01 
ITEM: TIMESTEP
10200000
ITEM: NUMBER OF ATOMS
40
ITEM: BOX BOUNDS pp pp pp
-1.0000000000000000e+01 1.0000000000000000e+01
-1.0000000000000000e+01 1.0000000000000000e+01
-1.5000000000000000e+02 1.5000000000000000e+02
ITEM: ATOMS id c_quat[1] c_quat[2] c_quat[3] c_quat[4] 
1 -3.090684e-01  8.741373e-01 -2.780449e-01  2.511011e-01 
2 -1.450538e-01 -9.415825e-01 -2.414582e-01  1.846071e-01 
3 -6.801863e-01 -1.389839e-01 -6.341403e-01 -3.404353e-01 
4 -5.089330e-01 -8.466669e-01 -1.537528e-01  2.241500e-02 
5 -2.761533e-01  9.169393e-01 -2.639421e-01  1.153090e-01 
6 -4.355533e-01  4.270789e-01 -7.902884e-01  5.780314e-02 
7  6.585020e-01  6.442020e-01 -3.918033e-02 -3.870967e-01 
8  4.653080e-01  8.628253e-01 -1.959402e-01 -2.506862e-02 
9  3.991208e-01 -8.301262e-01  3.232416e-01  2.170438e-01 
10  1.161108e-01 -5.799908e-01  5.680380e-01  5.722427e-01 
11  3.427703e-01 -6.485474e-01 -6.063486e-01 -3.069792e-01 
12 -1.394871e-01  4.680633e-01  7.831848e-01  3.848138e-01 
13 -4.652004e-03 -1.209065e-01 -9.435558e-01 -3.083220e-01 
14  1.272446e-01 -2.129118e-01  9.241218e-01  2.906479e-01 
15  5.188745e-01  1.853031e-01 -6.385370e-01 -5.373104e-01 
16  9.784312e-02  6.483667e-02  7.344820e-01 -6.684005e-01 
17  4.287566e-02  1.901057e-01 -7.574381e-01  6.231445e-01 
18 -2.120042e-01 -5.789280e-01  5.492016e-01 -5.641580e-01 
19  4.515808e-01  7.132432e-01 -3.264862e-01  4.251655e-01 
20 -6.430153e-01  2.901896e-01  2.185646e-01  6.742038e-01 
21  8.712332e-01 -2.773407e-01 -9.888780e-02 -3.927546e-01 
22 -1.678909e-01  8.086699e-01 -5.007755e-01  2.590166e-01 
23  1.115675e-02 -9.269824e-01  2.233247e-01 -3.011732e-01 
24  1.398867e-01  9.679051e-01  4.848663e-02  2.030774e-01 
25 -3.712761e-01 -8.353098e-01 -4.012469e-01 -5.841745e-02 
26 -8.235333e-01  4.803323e-01  2.160860e-01 -2.106672e-01 
27 -7.145418e-01  3.963008e-01  8.213680e-02 -5.706393e-01 
28  4.190601e-01 -3.959780e-01  9.809099e-02  8.111524e-01 
29 -3.767635e-01  5.432253e-01  5.963359e-01  4.553449e-01 
30 -1.015073e-01  1.791903e-01  7.729106e-01  6.001636e-01 
31  6.814942e-01  6.138698e-01  3.237302e-01  2.322248e-01 
32 -5.944108e-01 -4.868372e-01 -1.388360e-01 -6.248119e-01 
33  1.237122e-01  4.053372e-01  6.292552e-01  6.514867e-01 
34 -4.323251e-01  6.066459e-01 -2.241973e-01  6.283401e-01 
35 -7.985451e-01 -3.004472e-01 -2.739497e-02  5.208712e-01 
36  1.262973e-01  2.314749e-01 -4.103889e-01  8.729544e-01 
37  5.842158e-01  2.126460e-01 -7.414348e-01  2.524836e-01 
38 -3.037984e-01 -7.156883e-01  1.192285e-01 -6.174798e-01 
39  4.529003e-01 -4.947863e-01 -6.401284e-01 -3.745711e-01 
40  7.925131e-01 -3.269263e-01 -2.390253e-01  4.559705e-01 
ITEM: TIMESTEP
10220000
ITEM: NUMBER OF ATOMS
40
ITEM: BOX BOUNDS pp pp pp
-1.0000000000000000e+01 1.0000000000000000e+01
-1.0000000000000000e+01 1.0000000000000000e+01
-1.5000000000000000e+02 1.5000000000000000e+02
ITEM: ATOMS id c_quat[1] c_quat[2] c_quat[3] c_quat[4] 
1 -3.360572e-01  9.223181e-01 -1.662759e-01  9.352625e-02 
2 -1.715488e-01 -6.297513e-01 -5.894627e-01 -4.759391e-01 
3 -5.953721e-01 -2.209308e-01 -7.325268e-01 -2.452064e-01 
4 -4.539092e-01 -8.623087e-01 -1.308725e-01 -1.823801e-01 
5 -1.470388e-01  7.896456e-01 -1.948058e-01  5.629300e-01 
6 -5.979420e-01  5.181316e-01 -6.081767e-01  6.423475e-02 
7  6.975477e-01  5.578050e-01 -2.147380e-01 -3.951814e-01 
8  5.739949e-01  7.716714e-01 -3.495758e-02  2.717188e-01 
9  2.016525e-01 -9.663702e-01  1.286432e-01  9.442361e-02 
10  9.446027e-03 -2.341366e-01  4.404684e-01  8.666478e-01 
11  4.453973e-01 -7.798164e-01 -4.345078e-01 -6.863360e-02 
12 -2.719929e-01  4.492991e-01  7.347829e-01  4.292368e-01 
13  4.222065e-02 -3.545831e-02 -8.256958e-01 -5.614147e-01 
14  1.628928e-01 -2.063338e-01  8.582617e-01  4.407710e-01 
15  5.763816e-01  3.451961e-01 -6.055116e-01 -4.265906e-01 
16  4.289151e-02  1.461958e-01  7.646537e-01 -6.261723e-01 
17  2.227088e-01  1.809241e-01 -7.215218e-01  6.301378e-01 
18 -3.767823e-01 -5.121967e-01  5.798922e-01 -5.093276e-01 
19  4.788802e-01  7.460411e-01 -1.977374e-01  4.183257e-01 
20 -6.313196e-01  2.962433e-01  1.516010e-01  7.004946e-01 
21  8.657508e-01 -2.352489e-01 -6.964764e-02 -4.362140e-01 
22 -1.613339e-01  7.470912e-01 -5.759436e-01  2.900259e-01 
23  8.610873e-02 -9.187837e-01  3.136515e-01 -2.237063e-01 
24  1.120696e-01  9.032483e-01  2.605185e-01  3.220450e-01 
25 -2.934025e-01 -8.013365e-01 -4.782791e-01 -2.074217e-01 
26 -8.856055e-01  4.127859e-01  1.904728e-01 -9.503047e-02 
27 -5.983168e-01  6.279558e-01 -4.992055e-02 -4.951732e-01 
28  3.802994e-01 -5.768862e-01  2.957140e-01  6.596423e-01 
29 -2.246699e-01  3.722055e-01  6.645194e-01  6.077832e-01 
30  4.186092e-02  8.511457e-02  7.154208e-01  6.922255e-01 
31  6.909983e-01  4.834491e-01  3.961429e-01  3.631381e-01 
32 -6.992794e-01 -5.237022e-01 -3.959130e-01 -2.828379e-01 
33  2.153244e-01  2.998728e-01  6.646367e-01  6.495920e-01 
34 -1.334668e-01  8.417081e-01 -3.186295e-01  4.149571e-01 
35 -6.138500e-01 -5.034916e-01 -1.227370e-01  5.954998e-01 
36  1.884336e-01  1.367605e-01 -6.061917e-01  7.604741e-01 
37  5.228741e-01 -3.840927e-01 -7.260812e-01  2.277753e-01 
38 -3.289308e-01 -6.509018e-01  1.932563e-01 -6.563409e-01 
39  2.599663e-01 -5.472934e-01 -7.945241e-01 -4.023582e-02 
40  6.738069e-01 -2.680673e-01 -7.158144e-02  6.848359e-01 
ITEM: TIMESTEP
10240000
ITEM: NUMBER OF ATOMS
40
ITEM: BOX BOUNDS pp pp pp
-1.0000000000000000e+01 1.0000000000000000e+01
-1.0000000000000000e+01 1.0000000000000000e+01
-1.5000000000000000e+02 1.5000000000000000e+02
ITEM: ATOMS id c_quat[1] c_quat[2] c_quat[3] c_quat[4] 
1 -5.088076e-01  8.438876e-01  8.057804e-02  1.499188e-01 
2  6.362012e-03 -5.775184e-01 -3.951746e-01 -7.143312e-01 
3 -4.238837e-01 -1.677769e-01 -6.013868e-01 -6.561306e-01 
4 -3.263916e-01 -8.215705e-01  9.759887e-02 -4.571268e-01 
5 -9.864429e-02  8.020511e-01 -1.169180e-01  5.773332e-01 
6 -6.996720e-01  2.708992e-01 -6.425770e-01  1.554590e-01 
7  3.607605e-01  5.680735e-01 -4.602815e-01 -5.790383e-01 
8  4.542462e-01  7.327177e-01  3.901102e-01  3.234180e-01 
9  3.456383e-01 -9.166036e-01 -6.509979e-02  1.900892e-01 
10  2.130720e-01 -2.557490e-01  1.400512e-01  9.325119e-01 
11  4.104284e-01 -7.483914e-01 -4.397414e-01 -2.794394e-01 
12 -2.127129e-01  4.899981e-01  7.244907e-01  4.356241e-01 
13  2.715236e-03 -5.718580e-02 -8.998429e-01 -4.324409e-01 
14  1.847636e-01 -3.431763e-01  8.481155e-01  3.588769e-01 
15  2.514397e-01  4.224685e-02 -7.979823e-01 -5.460930e-01 
16  1.551071e-01  1.410126e-01  7.450721e-01 -6.331863e-01 
17  9.072314e-02  1.685940e-01 -7.215830e-01  6.653295e-01 
18 -3.233364e-01 -4.876116e-01  5.157970e-01 -6.258130e-01 
19  4.937029e-01  6.871712e-01 -2.625198e-01  4.638282e-01 
20 -5.441199e-01  3.293855e-01  3.286597e-01  6.981558e-01 
21  7.889921e-01 -3.896769e-01 -9.492821e-02 -4.654374e-01 
22 -2.363375e-01  7.250935e-01 -6.257093e-01  1.639265e-01 
23  1.102860e-01 -9.208568e-01  2.183667e-01 -3.036045e-01 
24  3.065960e-02  9.409347e-01  8.988434e-02  3.249964e-01 
25 -2.230206e-01 -7.956341e-01 -4.661216e-01 -3.161628e-01 
26 -8.625659e-01  3.845371e-01  3.016384e-01 -1.308646e-01 
27 -7.014102e-01  5.079631e-01  1.297367e-01 -4.828723e-01 
28  5.338709e-01 -5.563400e-01  5.172147e-03  6.367424e-01 
29 -2.349148e-01  3.013922e-01  7.865427e-01  4.851066e-01 
30  2.734263e-02  9.530732e-03  7.625206e-01  6.463156e-01 
31  7.863512e-01  5.123431e-01  1.363377e-01  3.171253e-01 
32 -8.533301e-01 -5.171567e-01  6.363324e-02 -1.809696e-02 
33  4.660859e-01  4.385750e-01  6.787596e-01  3.601406e-01 
34 -1.695678e-02  6.125055e-01 -6.177485e-01  4.928857e-01 
35 -6.037640e-01 -5.697024e-01  3.010035e-02  5.567784e-01 
36  2.652776e-01  5.314346e-02 -5.058077e-01  8.191228e-01 
37  9.781317e-02 -6.142984e-01 -7.023812e-01  3.460214e-01 
38 -2.570508e-01 -6.703501e-01  2.266829e-01 -6.581569e-01 
39  5.391770e-01 -4.779010e-01 -6.722036e-01  1.704143e-01 
40  2.874487e-01 -4.907685e-01  4.810057e-01  6.671979e-01 
ITEM: TIMESTEP
10260000
ITEM: NUMBER OF ATOMS
40
ITEM: BOX BOUNDS pp pp pp
-1.0000000000000000e+01 1.0000000000000000e+01
-1.0000000000000000e+01 1.0000000000000000e+01
-1.5000000000000000e+02 1.5000000000000000e+02
ITEM: ATOMS id c_quat[1] c_quat[2] c_quat[3] c_quat[4] 
1 -5.083488e-01  6.511808e-01  1.111240e-01  5.524459e-01 
2 -1.179844e-01 -1.493109e-01 -5.817625e-01 -7.907834e-01 
3 -2.694713e-01 -6.224846e-02 -7.079768e-01 -6.498301e-01 
4 -3.678933e-01 -4.609275e-01  8.139510e-02 -8.034769e-01 
5 -2.067012e-01  9.552286e-01  1.493960e-01  1.499794e-01 
6 -5.127563e-01 -3.508403e-02 -7.878195e-01  3.393971e-01 
7  6.285748e-01  2.590086e-01 -6.338638e-01 -3.688156e-01 