LAMMPS (29 Mar 2019)
OMP_NUM_THREADS environment is not set. Defaulting to 1 thread. (src/comm.cpp:88)
  using 1 OpenMP thread(s) per MPI task
Reading data file ...
  orthogonal box = (-10 -10 -150) to (10 10 150)
  1 by 1 by 1 MPI processor grid
  reading atoms ...
  1871 atoms
  reading velocities ...
  1871 velocities
  1871 ellipsoids
  scanning bonds ...
  2 = max bonds/atom
  reading bonds ...
  39 bonds
Finding 1-2 1-3 1-4 neighbors ...
  special bond factors lj:   0          0          0         
  special bond factors coul: 0          0          0         
  2 = max # of 1-2 neighbors
  2 = max # of 1-3 neighbors
  4 = max # of 1-4 neighbors
  6 = max # of special neighbors
  special bonds CPU = 0.000607729 secs
  read_data CPU = 0.0156536 secs
Setting atom values ...
  1871 settings made for mass
40 atoms in group dna
1831 atoms in group mem
Finding 1-2 1-3 1-4 neighbors ...
 Special bond factors lj:   0          1          1         
 Special bond factors coul: 1          1          1         
Neighbor list info ...
  update every 1 steps, delay 0 steps, check yes
  max neighbors/atom: 2000, page size: 100000
  master list distance cutoff = 2.6274
  ghost atom cutoff = 2.6274
  binsize = 1.3137, bins = 16 16 229
  6 neighbor lists, perpetual/occasional/extra = 6 0 0
  (1) pair oxdna2/excv, perpetual
      attributes: half, newton off
      pair build: half/bin/newtoff
      stencil: half/bin/3d/newtoff
      bin: standard
  (2) pair oxdna2/stk, perpetual, skip from (1)
      attributes: half, newton off
      pair build: skip
      stencil: none
      bin: none
  (3) pair oxdna2/hbond, perpetual, copy from (2)
      attributes: half, newton off
      pair build: copy
      stencil: none
      bin: none
  (4) pair oxdna2/xstk, perpetual, copy from (2)
      attributes: half, newton off
      pair build: copy
      stencil: none
      bin: none
  (5) pair oxdna2/coaxstk, perpetual, copy from (2)
      attributes: half, newton off
      pair build: copy
      stencil: none
      bin: none
  (6) pair oxdna2/dh, perpetual, skip from (1)
      attributes: half, newton off
      pair build: skip
      stencil: none
      bin: none
Setting up Verlet run ...
  Unit style    : lj
  Current step  : 0
  Time step     : 1e-07
Per MPI rank memory allocation (min/avg/max) = 8.482 | 8.482 | 8.482 Mbytes
Step Temp E_pair E_mol TotEng Press 
       0            0 -0.0082588756 0.00078499959 -0.007473876 -0.000115721 
20000  ekin = 0.900239297864513 |  erot = 2.27154405176604 | epot = -13.9825296082999 | etot = -10.8107462586693
   20000 0.00032094093 -0.0082588076 0.00078551541 -0.0069921381 -0.00010997158 
Loop time of 5.49114 on 1 procs for 20000 steps with 1871 atoms

Performance: 31.469 tau/day, 3642.234 timesteps/s
99.9% CPU use with 1 MPI tasks x 1 OpenMP threads

MPI task timing breakdown:
Section |  min time  |  avg time  |  max time  |%varavg| %total
---------------------------------------------------------------
Pair    | 3.4894     | 3.4894     | 3.4894     |   0.0 | 63.55
Bond    | 0.11174    | 0.11174    | 0.11174    |   0.0 |  2.03
Neigh   | 0          | 0          | 0          |   0.0 |  0.00
Comm    | 0.43008    | 0.43008    | 0.43008    |   0.0 |  7.83
Output  | 7.2956e-05 | 7.2956e-05 | 7.2956e-05 |   0.0 |  0.00
Modify  | 1.114      | 1.114      | 1.114      |   0.0 | 20.29
Other   |            | 0.3458     |            |       |  6.30

Nlocal:    1871 ave 1871 max 1871 min
Histogram: 1 0 0 0 0 0 0 0 0 0
Nghost:    1056 ave 1056 max 1056 min
Histogram: 1 0 0 0 0 0 0 0 0 0
Neighs:    831 ave 831 max 831 min
Histogram: 1 0 0 0 0 0 0 0 0 0

Total # of neighbors = 831
Ave neighs/atom = 0.444148
Ave special neighs/atom = 0.12186
Neighbor list builds = 0
Dangerous builds = 0
Finding 1-2 1-3 1-4 neighbors ...
 Special bond factors lj:   0          1          1         
 Special bond factors coul: 1          1          1         
Neighbor list info ...
  update every 1 steps, delay 0 steps, check yes
  max neighbors/atom: 2000, page size: 100000
  master list distance cutoff = 2.6274
  ghost atom cutoff = 2.6274
  binsize = 1.3137, bins = 16 16 229
  6 neighbor lists, perpetual/occasional/extra = 6 0 0
  (1) pair oxdna2/excv, perpetual
      attributes: half, newton off
      pair build: half/bin/newtoff
      stencil: half/bin/3d/newtoff
      bin: standard
  (2) pair oxdna2/stk, perpetual, skip from (1)
      attributes: half, newton off
      pair build: skip
      stencil: none
      bin: none
  (3) pair oxdna2/hbond, perpetual, copy from (2)
      attributes: half, newton off
      pair build: copy
      stencil: none
      bin: none
  (4) pair oxdna2/xstk, perpetual, copy from (2)
      attributes: half, newton off
      pair build: copy
      stencil: none
      bin: none
  (5) pair oxdna2/coaxstk, perpetual, copy from (2)
      attributes: half, newton off
      pair build: copy
      stencil: none
      bin: none
  (6) pair oxdna2/dh, perpetual, skip from (1)
      attributes: half, newton off
      pair build: skip
      stencil: none
      bin: none
Setting up Verlet run ...
  Unit style    : lj
  Current step  : 20000
  Time step     : 1e-06
Per MPI rank memory allocation (min/avg/max) = 9.146 | 9.146 | 9.146 Mbytes
Step Temp E_pair E_mol TotEng Press 
   20000 0.00032094093 -0.0082588076 0.00078551541 -0.0069921381 -0.00010997158 
40000  ekin = 3.81801808701013 |  erot = 4.15200251841302 | epot = -13.9238053863641 | etot = -5.95378478094094
   40000 0.0013611473 -0.0082625212 0.00082061559 -0.0054012759 -0.00010097755 
Loop time of 5.59629 on 1 procs for 20000 steps with 1871 atoms

Performance: 308.776 tau/day, 3573.798 timesteps/s
99.9% CPU use with 1 MPI tasks x 1 OpenMP threads

MPI task timing breakdown:
Section |  min time  |  avg time  |  max time  |%varavg| %total
---------------------------------------------------------------
Pair    | 3.3686     | 3.3686     | 3.3686     |   0.0 | 60.19
Bond    | 0.1097     | 0.1097     | 0.1097     |   0.0 |  1.96
Neigh   | 0          | 0          | 0          |   0.0 |  0.00
Comm    | 0.41414    | 0.41414    | 0.41414    |   0.0 |  7.40
Output  | 6.4611e-05 | 6.4611e-05 | 6.4611e-05 |   0.0 |  0.00
Modify  | 1.3731     | 1.3731     | 1.3731     |   0.0 | 24.54
Other   |            | 0.3307     |            |       |  5.91

Nlocal:    1871 ave 1871 max 1871 min
Histogram: 1 0 0 0 0 0 0 0 0 0
Nghost:    1056 ave 1056 max 1056 min
Histogram: 1 0 0 0 0 0 0 0 0 0
Neighs:    831 ave 831 max 831 min
Histogram: 1 0 0 0 0 0 0 0 0 0

Total # of neighbors = 831
Ave neighs/atom = 0.444148
Ave special neighs/atom = 0.12186
Neighbor list builds = 0
Dangerous builds = 0
1 atoms in group TL
Finding 1-2 1-3 1-4 neighbors ...
 Special bond factors lj:   0          1          1         
 Special bond factors coul: 1          1          1         
Neighbor list info ...
  update every 1 steps, delay 0 steps, check yes
  max neighbors/atom: 2000, page size: 100000
  master list distance cutoff = 2.6274
  ghost atom cutoff = 2.6274
  binsize = 1.3137, bins = 16 16 229
  6 neighbor lists, perpetual/occasional/extra = 6 0 0
  (1) pair oxdna2/excv, perpetual
      attributes: half, newton off
      pair build: half/bin/newtoff
      stencil: half/bin/3d/newtoff
      bin: standard
  (2) pair oxdna2/stk, perpetual, skip from (1)
      attributes: half, newton off
      pair build: skip
      stencil: none
      bin: none
  (3) pair oxdna2/hbond, perpetual, copy from (2)
      attributes: half, newton off
      pair build: copy
      stencil: none
      bin: none
  (4) pair oxdna2/xstk, perpetual, copy from (2)
      attributes: half, newton off
      pair build: copy
      stencil: none
      bin: none
  (5) pair oxdna2/coaxstk, perpetual, copy from (2)
      attributes: half, newton off
      pair build: copy
      stencil: none
      bin: none
  (6) pair oxdna2/dh, perpetual, skip from (1)
      attributes: half, newton off
      pair build: skip
      stencil: none
      bin: none
Setting up Verlet run ...
  Unit style    : lj
  Current step  : 40000
  Time step     : 0.003
Per MPI rank memory allocation (min/avg/max) = 9.146 | 9.146 | 9.146 Mbytes
Step Temp E_pair E_mol TotEng Press 
   40000 0.0013611473 -0.0082625212 0.00082061559 -0.0054012759 -0.00010097755 
60000  ekin = 5.23439908591882 |  erot = 7.05530945097574 | epot = -11.7527066609074 | etot = 0.537001875987205
80000  ekin = 6.70582984390119 |  erot = 6.34684972366953 | epot = -14.5235941707758 | etot = -1.4709146032051
100000  ekin = 5.68828793970423 |  erot = 6.08522421220014 | epot = -12.9820736089052 | etot = -1.20856145700079
120000  ekin = 6.8013378654751 |  erot = 5.89691363333961 | epot = -14.9869073654816 | etot = -2.28865586666693
140000  ekin = 7.23471785891749 |  erot = 4.92599822847629 | epot = -14.0077736234802 | etot = -1.84705753608646
160000  ekin = 6.34053073097835 |  erot = 5.76033961582392 | epot = -15.0176047263925 | etot = -2.91673437959019
180000  ekin = 5.65612748467425 |  erot = 7.21446400372798 | epot = -14.6691662168905 | etot = -1.79857472848822
200000  ekin = 5.58651711924276 |  erot = 5.75567788351205 | epot = -14.1588689092291 | etot = -2.81667390647428
220000  ekin = 6.12828052672332 |  erot = 5.93517123266936 | epot = -14.8197858046441 | etot = -2.7563340452514
240000  ekin = 7.1413992174591 |  erot = 6.89286968693454 | epot = -13.4136926679524 | etot = 0.620576236441231
260000  ekin = 5.64369828607557 |  erot = 5.61167819018209 | epot = -13.3854621374893 | etot = -2.13008566123167
280000  ekin = 6.2955021374076 |  erot = 5.89564842572749 | epot = -12.3003136279471 | etot = -0.109163064812003
300000  ekin = 5.82034033859637 |  erot = 7.11181639468368 | epot = -11.7159121124652 | etot = 1.21624462081488
320000  ekin = 6.47657802418669 |  erot = 6.02581242768521 | epot = -12.8876370051607 | etot = -0.385246553288852
340000  ekin = 6.87994026860031 |  erot = 7.51545878220062 | epot = -12.2208092989338 | etot = 2.17458975186716
360000  ekin = 5.86288683709448 |  erot = 5.5247589337821 | epot = -11.2911149652428 | etot = 0.0965308056337388
380000  ekin = 7.49206692591438 |  erot = 5.4655147641991 | epot = -11.2647021278574 | etot = 1.69287956225604
400000  ekin = 7.00178992971434 |  erot = 5.44747216859998 | epot = -12.0617430147641 | etot = 0.387519083550231
420000  ekin = 6.154141939649 |  erot = 5.94369005321012 | epot = -12.3849418068302 | etot = -0.287109813971123
440000  ekin = 6.0483512289129 |  erot = 6.62258159239983 | epot = -11.6619680634176 | etot = 1.00896475789508
460000  ekin = 6.1737929132906 |  erot = 5.76601664983722 | epot = -12.5940440317421 | etot = -0.654234468614291
480000  ekin = 5.62097590689173 |  erot = 5.22276070872793 | epot = -12.7896206865401 | etot = -1.9458840709204
500000  ekin = 4.49632668780129 |  erot = 5.40993010136087 | epot = -11.466938326522 | etot = -1.56068153735983
520000  ekin = 6.39295522036871 |  erot = 6.01761434653955 | epot = -13.1209729417865 | etot = -0.710403374878203
540000  ekin = 5.8892124830053 |  erot = 6.61539106675554 | epot = -12.7072178512443 | etot = -0.202614301483477
560000  ekin = 4.63811271301937 |  erot = 6.81520807821404 | epot = -12.2716840182712 | etot = -0.818363227037752
580000  ekin = 5.67039777282604 |  erot = 6.94564913221061 | epot = -12.6899840438065 | etot = -0.073937138769864
600000  ekin = 6.26031183625857 |  erot = 4.86587570735697 | epot = -14.5532982743346 | etot = -3.42711073071908
620000  ekin = 6.35492029980386 |  erot = 5.69834505574267 | epot = -11.8335087251719 | etot = 0.21975663037467
640000  ekin = 6.84486518803556 |  erot = 6.15699550165953 | epot = -14.3679122739405 | etot = -1.3660515842454
660000  ekin = 5.85582368086462 |  erot = 5.92653723792509 | epot = -13.5091561111828 | etot = -1.72679519239313
680000  ekin = 6.34168919813951 |  erot = 6.72884115528325 | epot = -13.0157086248191 | etot = 0.0548217286036596
700000  ekin = 6.50748716012239 |  erot = 5.20531850308465 | epot = -15.2734588166623 | etot = -3.56065315345525
720000  ekin = 6.45711390035682 |  erot = 5.78621303392564 | epot = -14.0606352910963 | etot = -1.81730835681384
740000  ekin = 6.08984407105295 |  erot = 6.57107484670363 | epot = -14.6421117176653 | etot = -1.98119279990869
760000  ekin = 5.80025307139133 |  erot = 4.47339662973858 | epot = -14.3685425676098 | etot = -4.09489286647994
780000  ekin = 5.61681462304658 |  erot = 5.31018608584297 | epot = -13.3243116581786 | etot = -2.39731094928904
800000  ekin = 5.46136778497084 |  erot = 6.54482493826057 | epot = -13.1098178886449 | etot = -1.10362516541352
820000  ekin = 5.53070886407565 |  erot = 6.48475996853441 | epot = -13.8104467786075 | etot = -1.79497794599743
840000  ekin = 6.58348971982983 |  erot = 6.17217686198003 | epot = -14.4417841626815 | etot = -1.68611758087167
860000  ekin = 5.91905823649699 |  erot = 6.33635767401745 | epot = -14.4201694003425 | etot = -2.16475348982807
880000  ekin = 6.42190588898021 |  erot = 6.90683091034345 | epot = -14.5509303925587 | etot = -1.222193593235
900000  ekin = 5.93164109675866 |  erot = 6.85572240241593 | epot = -16.5388618774592 | etot = -3.75149837828461
920000  ekin = 5.90761739775234 |  erot = 6.2417637811974 | epot = -15.5322223173198 | etot = -3.38284113837003
940000  ekin = 5.14815842589439 |  erot = 6.51448123006714 | epot = -14.248282879155 | etot = -2.58564322319344
960000  ekin = 6.24568522735282 |  erot = 7.49627837753379 | epot = -14.9194681033076 | etot = -1.17750449842102
980000  ekin = 7.08547912942331 |  erot = 6.16069250292421 | epot = -14.5979155614315 | etot = -1.35174392908401
1000000  ekin = 6.83281371722669 |  erot = 4.99019244354042 | epot = -15.2922919307233 | etot = -3.46928576995619
1020000  ekin = 4.94854342428727 |  erot = 6.44803106052668 | epot = -14.6734381188606 | etot = -3.27686363404665
1040000  ekin = 6.0714125789192 |  erot = 7.61880228373161 | epot = -15.3575606078194 | etot = -1.66734574516863
1060000  ekin = 5.48166965586251 |  erot = 6.17197815801692 | epot = -13.6354642255304 | etot = -1.98181641165094
1080000  ekin = 6.47448470032413 |  erot = 6.37952272129178 | epot = -13.4900648318504 | etot = -0.636057410234471
1100000  ekin = 6.43814386070357 |  erot = 5.00010572423598 | epot = -12.2971604302765 | etot = -0.858910845336922
1120000  ekin = 6.59093490167738 |  erot = 6.61663988698466 | epot = -15.5393090739611 | etot = -2.33173428529903
1140000  ekin = 5.98919452960991 |  erot = 5.03875854736704 | epot = -14.636661259833 | etot = -3.60870818285608
1160000  ekin = 7.34177157779236 |  erot = 5.27640845691744 | epot = -13.6562463413422 | etot = -1.03806630663245
1180000  ekin = 6.15994620223783 |  erot = 6.71501410240472 | epot = -15.0043128722677 | etot = -2.1293525676252
1200000  ekin = 6.3735821402518 |  erot = 7.11029455516595 | epot = -14.5425107779894 | etot = -1.05863408257162
1220000  ekin = 6.17942516356143 |  erot = 5.56832026698869 | epot = -14.8730532602535 | etot = -3.12530782970339
1240000  ekin = 6.40987700172814 |  erot = 6.85587886567338 | epot = -15.296180811497 | etot = -2.03042494409547
1260000  ekin = 5.41529281631907 |  erot = 5.69136133117329 | epot = -15.0697308084264 | etot = -3.96307666093407
1280000  ekin = 7.19864689864753 |  erot = 5.19633589231492 | epot = -14.2938352216257 | etot = -1.89885243066322
1300000  ekin = 5.59104532080481 |  erot = 6.15777393123698 | epot = -14.6669476898974 | etot = -2.91812843785564
1320000  ekin = 5.3088056232716 |  erot = 6.80110398905346 | epot = -15.386786597867 | etot = -3.27687698554196
1340000  ekin = 5.3264363818321 |  erot = 6.85711521171079 | epot = -14.5881288427582 | etot = -2.40457724921529
1360000  ekin = 5.30694292917713 |  erot = 6.31578406812875 | epot = -14.6544046811749 | etot = -3.03167768386906
1380000  ekin = 6.77347908942516 |  erot = 6.64093734726788 | epot = -13.3676353938691 | etot = 0.0467810428239162
1400000  ekin = 5.9653645428324 |  erot = 6.42859866014382 | epot = -14.3012461933534 | etot = -1.90728299037722
1420000  ekin = 5.91499652720462 |  erot = 6.31665385823148 | epot = -13.7735396980201 | etot = -1.54188931258401
1440000  ekin = 7.0756344105703 |  erot = 5.54771269489557 | epot = -13.5955209958494 | etot = -0.97217389038352
1460000  ekin = 6.82284812634036 |  erot = 5.7723879005195 | epot = -14.2721456299619 | etot = -1.67690960310203
1480000  ekin = 6.63118924432762 |  erot = 6.41674404047974 | epot = -14.3989425738852 | etot = -1.35100928907783
1500000  ekin = 6.81787821011322 |  erot = 5.5401391895843 | epot = -12.8913764140868 | etot = -0.533359014389259
1520000  ekin = 5.07672944165597 |  erot = 6.64828439540453 | epot = -11.5836875940697 | etot = 0.141326242990791
1540000  ekin = 6.30464508829736 |  erot = 7.1874051205662 | epot = -15.7020625668593 | etot = -2.21001235799577
1560000  ekin = 7.26322077895654 |  erot = 6.74920823615451 | epot = -14.7630546962278 | etot = -0.750625681116757
1580000  ekin = 6.20939274848999 |  erot = 5.50933054826311 | epot = -15.3940019801068 | etot = -3.67527868335366
1600000  ekin = 5.05566944622426 |  erot = 5.60613571713194 | epot = -12.9274243052754 | etot = -2.2656191419192
1620000  ekin = 6.12491742335349 |  erot = 7.41740807715205 | epot = -15.0120529374958 | etot = -1.4697274369903
1640000  ekin = 4.91088746203045 |  erot = 5.11853987915566 | epot = -14.0706137754475 | etot = -4.04118643426135
1660000  ekin = 5.69374929633878 |  erot = 5.85566935398769 | epot = -13.235578374585 | etot = -1.68615972425854
1680000  ekin = 5.57067717558779 |  erot = 5.75856701804971 | epot = -13.404746493398 | etot = -2.07550229976048
1700000  ekin = 6.56196408460038 |  erot = 6.14249091282153 | epot = -13.2102273985307 | etot = -0.5057724011088
1720000  ekin = 5.83509982707867 |  erot = 6.85752941455239 | epot = -13.6116452896393 | etot = -0.91901604800827
1740000  ekin = 5.42036325885837 |  erot = 7.23212594620348 | epot = -14.1954858475993 | etot = -1.54299664253745
1760000  ekin = 6.13212060532007 |  erot = 4.70679256014119 | epot = -13.5179036187953 | etot = -2.67899045333407
1780000  ekin = 5.85465218588123 |  erot = 6.10128404598791 | epot = -13.8460494116115 | etot = -1.89011317974239
1800000  ekin = 5.61246714947107 |  erot = 5.3731873392076 | epot = -12.6563270246469 | etot = -1.67067253596827
1820000  ekin = 7.33218397722963 |  erot = 6.87985574430988 | epot = -13.637352515373 | etot = 0.57468720616656
1840000  ekin = 6.53578915116854 |  erot = 5.44016150587955 | epot = -14.6209483435233 | etot = -2.64499768647522
1860000  ekin = 5.51364988226038 |  erot = 5.96300362888181 | epot = -14.6766443853449 | etot = -3.19999087420267
1880000  ekin = 7.28759319888573 |  erot = 6.17811317200025 | epot = -14.9376767703751 | etot = -1.47197039948916
1900000  ekin = 6.04285543224396 |  erot = 7.03479485923233 | epot = -15.5313955481578 | etot = -2.45374525668151
1920000  ekin = 6.05993220733809 |  erot = 5.58821844686645 | epot = -14.6942650273711 | etot = -3.04611437316658
1940000  ekin = 5.79497057781344 |  erot = 6.09115083286148 | epot = -13.2358438655216 | etot = -1.34972245484667
1960000  ekin = 5.75192574140624 |  erot = 6.25285426453066 | epot = -13.3567314440605 | etot = -1.3519514381236
1980000  ekin = 5.8160774987563 |  erot = 6.8465663732032 | epot = -14.286721494258 | etot = -1.6240776222985
2000000  ekin = 7.65108744055874 |  erot = 5.48542574320294 | epot = -15.9772045780905 | etot = -2.84069139432879
2020000  ekin = 6.68795371745689 |  erot = 5.9130882118545 | epot = -14.6850018342759 | etot = -2.08395990496447
2040000  ekin = 5.71454160656671 |  erot = 6.7838026266572 | epot = -15.1946370875778 | etot = -2.69629285435387
2060000  ekin = 5.32808069233997 |  erot = 7.16092524455022 | epot = -13.3732895545594 | etot = -0.884283617669164
2080000  ekin = 6.14993339788686 |  erot = 6.40954767786729 | epot = -14.1135181856053 | etot = -1.55403710985119
2100000  ekin = 6.35900278696304 |  erot = 5.47989944847502 | epot = -15.2816557410187 | etot = -3.44275350558068
2120000  ekin = 6.84263764859979 |  erot = 6.35611233081696 | epot = -12.5293331769371 | etot = 0.669416802479677
2140000  ekin = 6.50482228256159 |  erot = 6.26770395418478 | epot = -12.8177441260878 | etot = -0.0452178893413802
2160000  ekin = 5.64133098225843 |  erot = 5.21185479011622 | epot = -12.5987419998528 | etot = -1.74555622747813
2180000  ekin = 5.30484279014316 |  erot = 6.20386767575633 | epot = -12.1375827952295 | etot = -0.628872329329987
2200000  ekin = 4.8920241935992 |  erot = 5.00970362983969 | epot = -13.1337136187106 | etot = -3.23198579527173
2220000  ekin = 6.36932407455161 |  erot = 6.24945188381074 | epot = -13.0495959874338 | etot = -0.430820029071494
2240000  ekin = 6.54464523792564 |  erot = 6.73378815226345 | epot = -12.5056869935374 | etot = 0.772746396651714
2260000  ekin = 6.25625816516771 |  erot = 6.13073674611638 | epot = -12.651965113554 | etot = -0.264970202269861
2280000  ekin = 5.81894367605187 |  erot = 4.48429653825356 | epot = -13.6405781562512 | etot = -3.33733794194574
2300000  ekin = 5.45848720987876 |  erot = 5.65036525877183 | epot = -13.679714797305 | etot = -2.57086232865445
2320000  ekin = 6.96418299635956 |  erot = 7.9402098509217 | epot = -12.6034346643698 | etot = 2.30095818291144
2340000  ekin = 7.26023643418953 |  erot = 5.55813276129675 | epot = -10.6199668792142 | etot = 2.19840231627212
2360000  ekin = 7.06621380581183 |  erot = 6.3227093743522 | epot = -12.9095140537315 | etot = 0.479409126432547
2380000  ekin = 6.5203629586226 |  erot = 7.03752607371477 | epot = -12.7192420439094 | etot = 0.838646988428005
2400000  ekin = 5.19949756111344 |  erot = 4.85921281005853 | epot = -12.0923129132048 | etot = -2.03360254203284
2420000  ekin = 5.91263797793959 |  erot = 6.04848782061147 | epot = -14.7005016052737 | etot = -2.73937580672268
2440000  ekin = 6.83861646159276 |  erot = 6.58099369707856 | epot = -13.9452150786192 | etot = -0.525604919947842
2460000  ekin = 4.73882316368841 |  erot = 7.1292080236292 | epot = -12.9035110208781 | etot = -1.03547983356049
2480000  ekin = 5.9738291626135 |  erot = 6.5022385357389 | epot = -13.7985424823025 | etot = -1.32247478395014
2500000  ekin = 4.82432127828519 |  erot = 5.72721899758128 | epot = -13.0898040385808 | etot = -2.53826376271432
2520000  ekin = 7.11593742330147 |  erot = 7.87314563891624 | epot = -13.7303046082801 | etot = 1.2587784539376
2540000  ekin = 5.79215096973383 |  erot = 7.25154127343402 | epot = -12.1471385396476 | etot = 0.896553703520205
2560000  ekin = 4.94995306558217 |  erot = 6.33678534023674 | epot = -13.3269845145933 | etot = -2.04024610877436
2580000  ekin = 5.05308756580942 |  erot = 5.5383066324408 | epot = -13.5585220691871 | etot = -2.96712787093685
2600000  ekin = 6.04315498987231 |  erot = 6.82152425792969 | epot = -13.2528586945817 | etot = -0.388179446779674
2620000  ekin = 5.16131077599563 |  erot = 4.97764604634521 | epot = -13.8281033357329 | etot = -3.68914651339204
2640000  ekin = 5.05668201283225 |  erot = 5.30967031025173 | epot = -13.7670597249848 | etot = -3.40070740190081
2660000  ekin = 5.97560296938932 |  erot = 6.07533819897202 | epot = -12.8709238675033 | etot = -0.819982699141988
2680000  ekin = 7.66853456706534 |  erot = 6.38875134059371 | epot = -13.0788760161855 | etot = 0.978409891473593
2700000  ekin = 5.24448429517278 |  erot = 5.53715698998789 | epot = -13.0861714321005 | etot = -2.30453014693979
2720000  ekin = 6.23613642090238 |  erot = 6.41482257071148 | epot = -13.8766897658994 | etot = -1.22573077428554
2740000  ekin = 5.73536622825339 |  erot = 7.42570150386459 | epot = -14.1569340749215 | etot = -0.99586634280355
2760000  ekin = 5.20331000522859 |  erot = 7.72058683185498 | epot = -11.9748065801712 | etot = 0.949090256912399
2780000  ekin = 6.46724168610192 |  erot = 5.00223395420929 | epot = -13.4812457617221 | etot = -2.01177012141088
2800000  ekin = 6.25503386995043 |  erot = 6.05058928960822 | epot = -13.1930704354855 | etot = -0.887447275926814
2820000  ekin = 5.85361075173643 |  erot = 6.81436608866045 | epot = -13.6561411323414 | etot = -0.988164291944534
2840000  ekin = 6.48898805906096 |  erot = 6.44141064735287 | epot = -13.8483979763097 | etot = -0.917999269895901
2860000  ekin = 5.8978842776463 |  erot = 5.58348245177938 | epot = -13.9015844326038 | etot = -2.42021770317813
2880000  ekin = 5.80223367236746 |  erot = 6.9913702885721 | epot = -15.1386800640138 | etot = -2.34507610307426
2900000  ekin = 5.73550974668238 |  erot = 6.15529170893246 | epot = -12.855400610063 | etot = -0.964599154448162
2920000  ekin = 5.30477454622835 |  erot = 5.61890403360982 | epot = -13.2869104806705 | etot = -2.36323190083234
2940000  ekin = 5.85239715285039 |  erot = 6.47027073877764 | epot = -13.4801995563253 | etot = -1.15753166469729
2960000  ekin = 5.427758706271 |  erot = 6.50699505054467 | epot = -14.0224912324265 | etot = -2.08773747561082
2980000  ekin = 6.04153815679135 |  erot = 5.4994572152403 | epot = -13.3741214844935 | etot = -1.83312611246185
3000000  ekin = 5.11994377761757 |  erot = 6.08375945723458 | epot = -12.9530934207069 | etot = -1.74939018585477
3020000  ekin = 5.47522608163122 |  erot = 6.87772769477731 | epot = -13.7324181748808 | etot = -1.37946439847232
3040000  ekin = 5.59021642554504 |  erot = 5.86632231071625 | epot = -13.5000560074792 | etot = -2.04351727121795
3060000  ekin = 5.98544923214797 |  erot = 6.43415391013915 | epot = -14.7892194067435 | etot = -2.36961626445641
3080000  ekin = 6.13115460949129 |  erot = 5.91987399683612 | epot = -13.835318533678 | etot = -1.78428992735064
3100000  ekin = 6.42984550491658 |  erot = 5.32145020237285 | epot = -13.3151452569592 | etot = -1.56384954966977
3120000  ekin = 5.28559997097696 |  erot = 6.57384130975583 | epot = -14.0308551519005 | etot = -2.17141387116769
3140000  ekin = 6.62353803606045 |  erot = 6.0735045260495 | epot = -13.9295401112838 | etot = -1.2324975491739
3160000  ekin = 5.59867631723911 |  erot = 6.48257195469406 | epot = -12.8681744741536 | etot = -0.786926202220402
3180000  ekin = 4.95158337799426 |  erot = 6.09216164985359 | epot = -13.282337245996 | etot = -2.23859221814816
3200000  ekin = 5.74950480848383 |  erot = 7.10569655181214 | epot = -13.3772269386439 | etot = -0.522025578347973
3220000  ekin = 6.86689088293096 |  erot = 6.25353271182589 | epot = -11.7046795028723 | etot = 1.41574409188458
3240000  ekin = 6.63188231499153 |  erot = 7.13442820045499 | epot = -14.6031623152342 | etot = -0.83685179978767
3260000  ekin = 5.34937017119371 |  erot = 5.56612883907909 | epot = -12.9375743543803 | etot = -2.02207534410751
3280000  ekin = 5.34196834747007 |  erot = 5.29395047458869 | epot = -13.3296997067228 | etot = -2.69378088466401
3300000  ekin = 4.94493290682328 |  erot = 5.31406459572366 | epot = -13.0970314148029 | etot = -2.83803391225598
3320000  ekin = 6.59053978336978 |  erot = 5.24405446725098 | epot = -13.7190466774846 | etot = -1.88445242686387
3340000  ekin = 4.69835291753405 |  erot = 5.77862418635033 | epot = -13.36206982974 | etot = -2.88509272585559
3360000  ekin = 7.23213123358823 |  erot = 6.23015641435544 | epot = -12.8765961102325 | etot = 0.585691537711165
3380000  ekin = 6.14020406782693 |  erot = 5.79422143521908 | epot = -12.8091593521923 | etot = -0.874733849146246
3400000  ekin = 6.32608748787526 |  erot = 6.64823846000192 | epot = -13.9974865291426 | etot = -1.02316058126543
3420000  ekin = 4.75912564173665 |  erot = 6.36757049333054 | epot = -13.6242798044434 | etot = -2.49758366937621
3440000  ekin = 6.59642551550085 |  erot = 6.61441144359754 | epot = -12.0616218768533 | etot = 1.14921508224512
3460000  ekin = 5.87980951590151 |  erot = 5.57607240497284 | epot = -12.7318320043887 | etot = -1.27595008351431
3480000  ekin = 5.32838597976744 |  erot = 7.09963957041789 | epot = -13.349376915615 | etot = -0.9213513654297
3500000  ekin = 6.16623584288815 |  erot = 5.68324495853427 | epot = -13.0261878394157 | etot = -1.17670703799322
3520000  ekin = 7.30881375873883 |  erot = 6.49461969495725 | epot = -13.0234064748918 | etot = 0.780026978804241
3540000  ekin = 7.19325049256462 |  erot = 5.16510376179625 | epot = -12.1912265854668 | etot = 0.167127668894082
3560000  ekin = 5.84427664945528 |  erot = 5.88879668903354 | epot = -12.6371426306469 | etot = -0.9040692921581
3580000  ekin = 5.28851657965477 |  erot = 5.74811659611233 | epot = -13.1432139522097 | etot = -2.10658077644265
3600000  ekin = 5.92977040593981 |  erot = 5.93349365321509 | epot = -13.6005829139126 | etot = -1.73731885475767
3620000  ekin = 5.477812417393 |  erot = 7.08498136105722 | epot = -12.8237224424401 | etot = -0.260928663989896
3640000  ekin = 5.90169634900188 |  erot = 6.10584758215306 | epot = -11.9007075178141 | etot = 0.10683641334081
3660000  ekin = 5.318733313462 |  erot = 5.66027848748529 | epot = -13.1065617853304 | etot = -2.12754998438314
3680000  ekin = 7.36599085322895 |  erot = 6.13492727804905 | epot = -11.7041065172636 | etot = 1.79681161401443
3700000  ekin = 6.928965041802 |  erot = 6.96655715569382 | epot = -10.588482398971 | etot = 3.30703979852479
3720000  ekin = 6.7165131322862 |  erot = 5.13755110919913 | epot = -10.2858589605099 | etot = 1.56820528097538
3740000  ekin = 6.29360895381923 |  erot = 5.40131491231726 | epot = -9.45145803697369 | etot = 2.24346582916281
3760000  ekin = 6.14496243197414 |  erot = 7.08932867566874 | epot = -11.56523175343 | etot = 1.66905935421288
3780000  ekin = 4.85479116808883 |  erot = 4.95318465503468 | epot = -9.13069651668424 | etot = 0.677279306439267
3800000  ekin = 4.4427648045002 |  erot = 6.04860349072804 | epot = -10.7625338223596 | etot = -0.271165527131373
3820000  ekin = 6.36709481178774 |  erot = 7.92720447381602 | epot = -9.68487576096144 | etot = 4.60942352464232
3840000  ekin = 7.05647112029826 |  erot = 6.50844770182222 | epot = -8.21886977293947 | etot = 5.34604904918101
3860000  ekin = 5.3302154230364 |  erot = 5.79129719132122 | epot = -11.6396529942177 | etot = -0.518140379860096
3880000  ekin = 5.26997394699806 |  erot = 6.05604905527941 | epot = -8.57053707118716 | etot = 2.75548593109031
3900000  ekin = 6.0485564266616 |  erot = 5.60425801382188 | epot = -9.85497429022897 | etot = 1.7978401502545
3920000  ekin = 7.18539046055623 |  erot = 5.04135224903877 | epot = -10.2730728601402 | etot = 1.95366984945482
3940000  ekin = 7.46311973645635 |  erot = 6.17519010878709 | epot = -11.3473752596745 | etot = 2.29093458556897
3960000  ekin = 5.37977303728466 |  erot = 5.84905559829527 | epot = -10.1046855589938 | etot = 1.12414307658614
3980000  ekin = 6.45876626936238 |  erot = 5.90318632215287 | epot = -11.2249082528621 | etot = 1.1370443386532
4000000  ekin = 7.23638278749382 |  erot = 6.1711519125741 | epot = -9.98148561238289 | etot = 3.42604908768503
4020000  ekin = 4.26180513648866 |  erot = 6.93688061142184 | epot = -9.22781452232613 | etot = 1.97087122558437
4040000  ekin = 5.9443195325905 |  erot = 5.55973504116651 | epot = -11.7211121784437 | etot = -0.217057604686646
4060000  ekin = 6.49086245202726 |  erot = 6.03412205086438 | epot = -10.5401639034492 | etot = 1.98482059944244
4080000  ekin = 7.55552024135559 |  erot = 5.36115625095705 | epot = -11.0429840050322 | etot = 1.87369248728041
4100000  ekin = 5.38651315854883 |  erot = 7.19349789729188 | epot = -11.6655874400576 | etot = 0.914423615783093
4120000  ekin = 6.40565100078142 |  erot = 6.4268562017216 | epot = -11.1728113251069 | etot = 1.65969587739614
4140000  ekin = 7.23452958214295 |  erot = 6.74878924094146 | epot = -8.54143218214253 | etot = 5.44188664094188
4160000  ekin = 5.30757972529744 |  erot = 6.41393962048327 | epot = -9.22315799542224 | etot = 2.49836135035846
4180000  ekin = 5.49070304420509 |  erot = 6.10604984590619 | epot = -10.5570974569045 | etot = 1.03965543320682
4200000  ekin = 6.13828419525358 |  erot = 6.50549090290654 | epot = -11.6829189188845 | etot = 0.960856179275622
4220000  ekin = 6.71064381588107 |  erot = 5.82263565592509 | epot = -11.1410117857469 | etot = 1.39226768605927
4240000  ekin = 5.63455877080879 |  erot = 6.41714939067098 | epot = -12.4541138816888 | etot = -0.40240572020903
4260000  ekin = 5.67501508698014 |  erot = 6.44919429653559 | epot = -11.3423942971583 | etot = 0.781815086357403
4280000  ekin = 6.79043975486259 |  erot = 4.92592153232919 | epot = -11.1294680969051 | etot = 0.586893190286631
4300000  ekin = 6.255433784893 |  erot = 5.62879262683779 | epot = -11.2416359054809 | etot = 0.642590506249855
4320000  ekin = 6.38736932598004 |  erot = 5.88451878618469 | epot = -10.3659987628572 | etot = 1.90588934930752
4340000  ekin = 6.21999651850428 |  erot = 5.88248576850308 | epot = -9.96912871921109 | etot = 2.13335356779627
4360000  ekin = 6.86509011045968 |  erot = 7.72370989353182 | epot = -10.932024931604 | etot = 3.65677507238745
4380000  ekin = 4.31074710214843 |  erot = 6.24309366398232 | epot = -11.1818844054927 | etot = -0.628043639361984
4400000  ekin = 5.50531128151442 |  erot = 6.34888503618432 | epot = -11.0645973225424 | etot = 0.789598995156307
4420000  ekin = 6.11740645351835 |  erot = 6.7009649749231 | epot = -10.30704035816 | etot = 2.51133107028146
4440000  ekin = 6.04267189485596 |  erot = 6.25376492191939 | epot = -12.1685929750201 | etot = 0.127843841755293
4460000  ekin = 5.61459912586183 |  erot = 5.47849005899646 | epot = -10.3257594283215 | etot = 0.767329756536816
4480000  ekin = 6.10236645284116 |  erot = 5.3893497046378 | epot = -9.17487843512432 | etot = 2.31683772235465
4500000  ekin = 6.58408505965535 |  erot = 5.94306375982558 | epot = -11.8645996618424 | etot = 0.662549157638535
4520000  ekin = 6.2835630841493 |  erot = 6.20279843171176 | epot = -11.7608997131376 | etot = 0.725461802723437
4540000  ekin = 5.2522296451541 |  erot = 6.47750222057338 | epot = -10.3054236442927 | etot = 1.42430822143478
4560000  ekin = 5.60133002426902 |  erot = 5.90632217280552 | epot = -11.8681077049941 | etot = -0.360455507919548
4580000  ekin = 5.19879679556712 |  erot = 5.06983995914942 | epot = -11.5395619963494 | etot = -1.2709252416329
4600000  ekin = 7.12088633093576 |  erot = 6.44188644704263 | epot = -10.3512316058667 | etot = 3.21154117211167
4620000  ekin = 5.62320252613144 |  erot = 5.81025933434349 | epot = -10.7491496554928 | etot = 0.684312204982128
4640000  ekin = 5.36387877149017 |  erot = 4.35450879074657 | epot = -9.69758296115727 | etot = 0.0208046010794671
4660000  ekin = 4.76949180753782 |  erot = 6.66287454829661 | epot = -9.26267626603769 | etot = 2.16969008979674
4680000  ekin = 6.02868806157996 |  erot = 5.33135559741682 | epot = -10.0283791668317 | etot = 1.33166449216505
4700000  ekin = 6.57999455762737 |  erot = 5.38156505921539 | epot = -9.13667646892195 | etot = 2.82488314792081
4720000  ekin = 6.47791402615188 |  erot = 5.70385067744028 | epot = -8.8909564828829 | etot = 3.29080822070925
4740000  ekin = 5.81647288614926 |  erot = 5.4425669571181 | epot = -9.87900760483992 | etot = 1.38003223842743
4760000  ekin = 5.34834922851611 |  erot = 6.92951806661643 | epot = -9.90444114336156 | etot = 2.37342615177099
4780000  ekin = 5.28146580903563 |  erot = 6.02440404876577 | epot = -11.2103393638691 | etot = 0.0955304939322925
4800000  ekin = 6.78246185406952 |  erot = 5.96283680683018 | epot = -10.1835953299337 | etot = 2.56170333096602
4820000  ekin = 6.9352800698083 |  erot = 6.39391600481542 | epot = -11.6241182798468 | etot = 1.70507779477695
4840000  ekin = 4.9266137913684 |  erot = 5.58152229973843 | epot = -11.1690092559093 | etot = -0.660873164802473
4860000  ekin = 5.66846940209628 |  erot = 6.61726714813216 | epot = -10.7631716836905 | etot = 1.52256486653791
4880000  ekin = 7.09988659501342 |  erot = 5.69727083567534 | epot = -9.63017894360141 | etot = 3.16697848708734
4900000  ekin = 6.26560865087664 |  erot = 5.75672830161927 | epot = -11.4039762148672 | etot = 0.618360737628741
4920000  ekin = 5.75191052356618 |  erot = 5.20688356552964 | epot = -10.50229447662 | etot = 0.456499612475822
4940000  ekin = 5.75702986879724 |  erot = 6.10354308300263 | epot = -12.2351785131183 | etot = -0.374605561318431
4960000  ekin = 5.69690689926007 |  erot = 6.21482113506573 | epot = -13.2210953649042 | etot = -1.30936733057838
4980000  ekin = 5.2254190435735 |  erot = 5.74886467261698 | epot = -13.4604137319984 | etot = -2.48613001580789
5000000  ekin = 6.86727575616714 |  erot = 4.85314739295242 | epot = -12.5468078682658 | etot = -0.826384719146221
5020000  ekin = 6.13545426809784 |  erot = 4.79276093859769 | epot = -12.3492353692998 | etot = -1.42102016260432
5040000  ekin = 6.49062626816132 |  erot = 7.78577919682505 | epot = -12.70663905067 | etot = 1.56976641431633
5060000  ekin = 6.26036856704596 |  erot = 4.75412656499745 | epot = -12.7774678635504 | etot = -1.76297273150697
5080000  ekin = 5.9179753223604 |  erot = 6.10791266112372 | epot = -12.750796524972 | etot = -0.724908541487904
5100000  ekin = 5.93546803124849 |  erot = 5.67949264230288 | epot = -12.3691182621859 | etot = -0.754157588634548
5120000  ekin = 5.64778068452437 |  erot = 7.41953449450974 | epot = -14.1443136172994 | etot = -1.0769984382653
5140000  ekin = 6.12546274510105 |  erot = 6.95986236211564 | epot = -13.2337028960184 | etot = -0.148377788801744
5160000  ekin = 5.4376661525145 |  erot = 6.68617546526604 | epot = -13.7200283410811 | etot = -1.59618672330059
5180000  ekin = 7.76282346609902 |  erot = 6.09474379546535 | epot = -13.3613464484842 | etot = 0.496220813080178
5200000  ekin = 4.31653447792116 |  erot = 7.47904323448123 | epot = -13.557684888034 | etot = -1.76210717563156
5220000  ekin = 6.7141517774016 |  erot = 6.2708769155075 | epot = -12.4978855571354 | etot = 0.487143135773731
5240000  ekin = 7.04775701133169 |  erot = 6.005057367084 | epot = -12.6735652389025 | etot = 0.379249139513172
5260000  ekin = 5.7408305747154 |  erot = 6.04662274101973 | epot = -12.3491117294846 | etot = -0.561658413749493
5280000  ekin = 6.80233802619557 |  erot = 5.28274149184366 | epot = -13.4214735194105 | etot = -1.33639400137129
5300000  ekin = 6.07916434770106 |  erot = 6.08945294269002 | epot = -14.0026235680892 | etot = -1.83400627769815
5320000  ekin = 4.82150482908476 |  erot = 6.02562446121174 | epot = -12.4982725425982 | etot = -1.65114325230168
5340000  ekin = 5.1898170860515 |  erot = 5.63786659684297 | epot = -13.9085935223938 | etot = -3.08090983949934
5360000  ekin = 6.41352281802477 |  erot = 6.73216944613883 | epot = -13.4617500000782 | etot = -0.316057735914574
5380000  ekin = 6.11091795783943 |  erot = 6.17195141532186 | epot = -14.3745420790361 | etot = -2.09167270587477
5400000  ekin = 6.34878836965794 |  erot = 6.5289158023037 | epot = -12.7090395568963 | etot = 0.168664615065303
5420000  ekin = 5.68801735584754 |  erot = 6.95077512833592 | epot = -13.4553131538212 | etot = -0.816520669637754
5440000  ekin = 5.87123888308741 |  erot = 6.14693395160998 | epot = -14.3994396771835 | etot = -2.38126684248607
5460000  ekin = 5.75874294196429 |  erot = 4.90292261659784 | epot = -11.9458348165882 | etot = -1.28416925802611
5480000  ekin = 5.66466115259427 |  erot = 6.68310743287369 | epot = -13.3421511230914 | etot = -0.994382537623425
5500000  ekin = 5.97916819008308 |  erot = 6.35579855096153 | epot = -12.4216546708857 | etot = -0.0866879298410606
5520000  ekin = 5.13542397654365 |  erot = 6.79413986186552 | epot = -12.2980231804977 | etot = -0.368459342088517
5540000  ekin = 7.40210180547952 |  erot = 5.34705722611843 | epot = -13.5458036129644 | etot = -0.796644581366468
5560000  ekin = 7.41304808402166 |  erot = 5.48216015448848 | epot = -12.1568825334179 | etot = 0.738325705092279
5580000  ekin = 5.54004328025133 |  erot = 5.63661537555519 | epot = -11.2619029809177 | etot = -0.0852443251111783
5600000  ekin = 5.66963452210921 |  erot = 6.04337784718752 | epot = -12.6219065307928 | etot = -0.908894161496047
5620000  ekin = 5.19693662950054 |  erot = 6.51907724403993 | epot = -12.0433079714082 | etot = -0.327294097867714
5640000  ekin = 6.56703706704628 |  erot = 6.00489821282854 | epot = -14.4862942492783 | etot = -1.9143589694035
5660000  ekin = 5.81977030735571 |  erot = 6.00131801732338 | epot = -14.1090645907779 | etot = -2.28797626609883
5680000  ekin = 6.43354828570997 |  erot = 5.6495763213578 | epot = -11.7852361107639 | etot = 0.29788849630385
5700000  ekin = 5.03832770693845 |  erot = 5.41152174457302 | epot = -14.0051005876854 | etot = -3.55525113617393
5720000  ekin = 5.5880025169255 |  erot = 6.03753821964759 | epot = -13.633931922239 | etot = -2.0083911856659
5740000  ekin = 6.22118237835471 |  erot = 6.74227707311372 | epot = -13.197338775897 | etot = -0.233879324428557
5760000  ekin = 4.81702172514411 |  erot = 5.69757268357201 | epot = -14.5724432708199 | etot = -4.05784886210373
5780000  ekin = 7.25841104805568 |  erot = 7.1604932338636 | epot = -12.3267985414447 | etot = 2.09210574047462
5800000  ekin = 5.90775420355085 |  erot = 6.67356880936554 | epot = -12.4257492064092 | etot = 0.155573806507196
5820000  ekin = 7.02981879872221 |  erot = 6.72239990515422 | epot = -13.6510499336063 | etot = 0.101168770270153
5840000  ekin = 6.81771892533365 |  erot = 6.09731748124719 | epot = -14.799846882003 | etot = -1.88481047542213
5860000  ekin = 4.90585000706748 |  erot = 5.23029794702052 | epot = -13.2019700882924 | etot = -3.06582213420442
5880000  ekin = 5.92084392357445 |  erot = 7.41895091647417 | epot = -13.9192542409571 | etot = -0.579459400908506
5900000  ekin = 6.66067076008792 |  erot = 5.52682628392483 | epot = -14.4377468750746 | etot = -2.25024983106181
5920000  ekin = 5.94573044359811 |  erot = 6.93360186264343 | epot = -14.2012791161979 | etot = -1.32194680995641
5940000  ekin = 7.15908923369206 |  erot = 7.07551933115514 | epot = -13.611533114647 | etot = 0.623075450200169
5960000  ekin = 5.70111750730032 |  erot = 6.57103977673871 | epot = -13.4136172439311 | etot = -1.14145995989212
5980000  ekin = 5.59741420302341 |  erot = 5.93723386999722 | epot = -14.5196392152469 | etot = -2.98499114222624
6000000  ekin = 5.07762830735072 |  erot = 6.02886064527533 | epot = -13.9828704993307 | etot = -2.87638154670461
6020000  ekin = 5.7679747893043 |  erot = 5.90863105826489 | epot = -12.7265701180064 | etot = -1.04996427043722
6040000  ekin = 6.0323331257779 |  erot = 5.92401349420091 | epot = -13.7754511548301 | etot = -1.81910453485128
6060000  ekin = 5.54505605623802 |  erot = 5.81905372083909 | epot = -10.4102520530672 | etot = 0.953857724009898
6080000  ekin = 5.15661187059511 |  erot = 5.79899737623554 | epot = -13.7872349192871 | etot = -2.83162567245645
6100000  ekin = 5.80162075814581 |  erot = 6.97554979553418 | epot = -13.064148144401 | etot = -0.286977590721044
6120000  ekin = 7.60241257077547 |  erot = 6.54816253080409 | epot = -13.521880721526 | etot = 0.628694380053586
6140000  ekin = 4.90998239309697 |  erot = 5.44934817276698 | epot = -13.0051257289531 | etot = -2.6457951630891
6160000  ekin = 6.58480071883305 |  erot = 5.52028891277273 | epot = -12.82458698614 | etot = -0.719497354534255
6180000  ekin = 6.72891746371009 |  erot = 5.70518839750976 | epot = -13.2663151723524 | etot = -0.832209311132551
6200000  ekin = 5.09002598333575 |  erot = 6.75192094308892 | epot = -11.3420857384506 | etot = 0.499861187974064
6220000  ekin = 5.10849554840158 |  erot = 4.76221600235629 | epot = -12.0185547742935 | etot = -2.14784322353561
6240000  ekin = 6.24709755038924 |  erot = 6.07972633311823 | epot = -14.0919954728095 | etot = -1.76517158930203
6260000  ekin = 7.6333512111556 |  erot = 7.44542731500722 | epot = -13.28378243046 | etot = 1.79499609570279
6280000  ekin = 5.94805205346887 |  erot = 5.62112081014496 | epot = -14.5118805867881 | etot = -2.94270772317431
6300000  ekin = 5.83997829504166 |  erot = 6.02523453096713 | epot = -12.9129143635596 | etot = -1.04770153755079
6320000  ekin = 6.43167228147297 |  erot = 5.35916879034099 | epot = -12.8518664533472 | etot = -1.06102538153326
6340000  ekin = 5.65273619922515 |  erot = 5.28209597648195 | epot = -13.2549712724779 | etot = -2.32013909677082
6360000  ekin = 6.80651785798137 |  erot = 6.20345146394982 | epot = -12.6398354351279 | etot = 0.370133886803311
6380000  ekin = 5.24103480076124 |  erot = 5.55133396610637 | epot = -11.5752012946426 | etot = -0.782832527775032
6400000  ekin = 5.52338730794492 |  erot = 6.41427798392581 | epot = -13.3340805654958 | etot = -1.39641527362504
6420000  ekin = 5.64406177630005 |  erot = 5.58699684873733 | epot = -14.0005930242617 | etot = -2.7695343992243
6440000  ekin = 6.62751954905714 |  erot = 6.34959426949514 | epot = -14.2833121656632 | etot = -1.30619834711094
6460000  ekin = 5.57175215297445 |  erot = 5.374170391361 | epot = -13.2832812939722 | etot = -2.33735874963676
6480000  ekin = 5.538203111221 |  erot = 7.36766390465213 | epot = -14.2565610231914 | etot = -1.35069400731825
6500000  ekin = 5.35618924396047 |  erot = 6.99941216767742 | epot = -10.961393923251 | etot = 1.39420748838689
6520000  ekin = 6.59372032263607 |  erot = 7.30465860152046 | epot = -11.4411802569026 | etot = 2.45719866725396
6540000  ekin = 5.83884604786352 |  erot = 5.97516415639235 | epot = -13.2166229888318 | etot = -1.40261278457596
6560000  ekin = 6.20751293292734 |  erot = 5.1304472863505 | epot = -12.8188251945861 | etot = -1.48086497530826
WARNING: FENE bond too long: 6576352 32 31 0.51517 (src/USER-CGDNA/bond_oxdna_fene.cpp:139)
WARNING: FENE bond too long: 6576353 32 31 0.50695 (src/USER-CGDNA/bond_oxdna_fene.cpp:139)
WARNING: FENE bond too long: 6576365 31 30 0.993829 (src/USER-CGDNA/bond_oxdna_fene.cpp:139)
WARNING: FENE bond too long: 6576366 31 30 0.994348 (src/USER-CGDNA/bond_oxdna_fene.cpp:139)
WARNING: FENE bond too long: 6576367 31 30 0.995101 (src/USER-CGDNA/bond_oxdna_fene.cpp:139)
WARNING: FENE bond too long: 6576368 31 30 0.995929 (src/USER-CGDNA/bond_oxdna_fene.cpp:139)
WARNING: FENE bond too long: 6576369 31 30 0.995744 (src/USER-CGDNA/bond_oxdna_fene.cpp:139)
WARNING: FENE bond too long: 6576370 31 30 0.994047 (src/USER-CGDNA/bond_oxdna_fene.cpp:139)
6580000  ekin = 5.54869215804252 |  erot = 7.12344018245592 | epot = -12.59756780671 | etot = 0.0745645337884255
6600000  ekin = 6.06575645435497 |  erot = 7.51012851271821 | epot = -11.5189312049314 | etot = 2.05695376214184
6620000  ekin = 5.34176159140928 |  erot = 5.83665829816741 | epot = -12.1646079152939 | etot = -0.986188025717169
6640000  ekin = 6.59582031166203 |  erot = 6.44697316138609 | epot = -11.7657413071399 | etot = 1.27705216590823
6660000  ekin = 5.46501597179748 |  erot = 5.92506368296494 | epot = -12.0873125552474 | etot = -0.697232900484991
6680000  ekin = 5.72132840319673 |  erot = 7.4497599764484 | epot = -12.1878388968132 | etot = 0.983249482831919
6700000  ekin = 4.82769937886801 |  erot = 5.77771330114292 | epot = -12.8210260076526 | etot = -2.21561332764169
6720000  ekin = 5.27148945797415 |  erot = 4.1378172729798 | epot = -11.5034780021645 | etot = -2.09417127121057
6740000  ekin = 4.88080604944645 |  erot = 5.31189728755618 | epot = -13.1920362610974 | etot = -2.99933292409481
6760000  ekin = 5.93197149575395 |  erot = 7.12250980680311 | epot = -10.5731726771458 | etot = 2.48130862541126
6780000  ekin = 6.3266799402815 |  erot = 6.24803499409866 | epot = -12.0879845466373 | etot = 0.486730387742885
6800000  ekin = 5.94641771406941 |  erot = 6.78523970133758 | epot = -11.4041204815214 | etot = 1.32753693388557
6820000  ekin = 5.6878016990368 |  erot = 5.55837803341154 | epot = -12.6669706121372 | etot = -1.4207908796889
6840000  ekin = 6.5184938124944 |  erot = 6.3001748931406 | epot = -11.5151093481841 | etot = 1.30355935745086
6860000  ekin = 5.1657537109394 |  erot = 6.74518424097401 | epot = -11.20998972646 | etot = 0.700948225453383
6880000  ekin = 5.73892237353776 |  erot = 6.25513132187462 | epot = -12.041008476268 | etot = -0.0469547808556285
6900000  ekin = 4.94205852244028 |  erot = 7.06511214561306 | epot = -11.4646565320422 | etot = 0.542514136011144
6920000  ekin = 5.63887630950811 |  erot = 5.36004744674204 | epot = -11.2612942311758 | etot = -0.262370474925609
6940000  ekin = 5.65723024059743 |  erot = 4.94065082495612 | epot = -11.7673128310129 | etot = -1.16943176545932
6960000  ekin = 5.19699896409141 |  erot = 6.32034162849685 | epot = -12.9258210264512 | etot = -1.40848043386292
6980000  ekin = 5.6892179548957 |  erot = 6.33413107763292 | epot = -12.4730345976026 | etot = -0.449685565073978
7000000  ekin = 5.91680063148851 |  erot = 6.58869660133071 | epot = -10.6217667463039 | etot = 1.88373048651534
7020000  ekin = 4.74530676820637 |  erot = 5.43551949027954 | epot = -10.7060066078982 | etot = -0.525180349412262
7040000  ekin = 6.81644908557267 |  erot = 5.50932384416996 | epot = -10.9734243308262 | etot = 1.35234859891641
7060000  ekin = 6.99132188173566 |  erot = 5.84430319326878 | epot = -10.1444840805369 | etot = 2.69114099446758
7080000  ekin = 5.97693502789811 |  erot = 5.80371700871124 | epot = -10.7602986305365 | etot = 1.02035340607283
7100000  ekin = 5.63586840754197 |  erot = 6.23794932646228 | epot = -12.0511700604058 | etot = -0.177352326401573
7120000  ekin = 7.49835980298535 |  erot = 7.08134508237901 | epot = -11.3873512437218 | etot = 3.19235364164258
7140000  ekin = 4.97013505205224 |  erot = 6.85578133048236 | epot = -10.7008771522358 | etot = 1.12503923029881
7160000  ekin = 5.47901271932408 |  erot = 5.9414019795173 | epot = -10.9978106361907 | etot = 0.422604062650706
7180000  ekin = 5.50524545200692 |  erot = 6.34118764619544 | epot = -11.0646602733848 | etot = 0.781772824817608
7200000  ekin = 5.97679483922126 |  erot = 5.34755696184532 | epot = -10.4626778454162 | etot = 0.861673955650337
7220000  ekin = 6.19670594205572 |  erot = 6.45097044514797 | epot = -11.1286238834367 | etot = 1.519052503767
7240000  ekin = 6.57404577816026 |  erot = 5.98504648418897 | epot = -9.94879305361031 | etot = 2.61029920873892
7260000  ekin = 5.63624585672453 |  erot = 6.29007505370641 | epot = -10.9397101552093 | etot = 0.986610755221651
7280000  ekin = 6.02585407990709 |  erot = 6.26293521942171 | epot = -11.5490926565167 | etot = 0.739696642812095
7300000  ekin = 4.77211727855208 |  erot = 6.39425400689726 | epot = -12.5336847539249 | etot = -1.36731346847552
7320000  ekin = 4.06637884771012 |  erot = 6.49728620584251 | epot = -12.3867002315553 | etot = -1.82303517800268
7340000  ekin = 5.36056933840597 |  erot = 5.39339491850575 | epot = -12.8492668461346 | etot = -2.09530258922285
7360000  ekin = 7.13471952970134 |  erot = 6.51949321918668 | epot = -12.6794483520442 | etot = 0.974764396843872
7380000  ekin = 5.58650444205068 |  erot = 5.25116571487304 | epot = -11.8772493671663 | etot = -1.03957921024256
7400000  ekin = 6.51210048338138 |  erot = 7.21684403581958 | epot = -12.2079011355647 | etot = 1.52104338363625
7420000  ekin = 5.75624493648864 |  erot = 5.86762310102007 | epot = -11.2281644297364 | etot = 0.395703607772274
7440000  ekin = 6.2012759722315 |  erot = 5.88080227608693 | epot = -13.4406772760156 | etot = -1.35859902769719
7460000  ekin = 6.48981410042424 |  erot = 5.988498456861 | epot = -12.6624519902561 | etot = -0.184139432970879
7480000  ekin = 5.55003312556189 |  erot = 6.84039230755901 | epot = -12.484126925185 | etot = -0.0937014920641435
7500000  ekin = 6.27009361436221 |  erot = 6.11052719225104 | epot = -12.9699376105538 | etot = -0.589316803940577
7520000  ekin = 5.33661202364214 |  erot = 6.40383554412561 | epot = -12.1981405322828 | etot = -0.45769296451501
7540000  ekin = 5.81069330881266 |  erot = 5.37696564581599 | epot = -12.3826011922257 | etot = -1.19494223759707
7560000  ekin = 5.0451141804214 |  erot = 6.03497237243347 | epot = -12.6806880932285 | etot = -1.60060154037362
7580000  ekin = 5.50947679473119 |  erot = 5.64225451248402 | epot = -12.0361616437016 | etot = -0.884430336486359
7600000  ekin = 6.37679237099835 |  erot = 6.45230201673552 | epot = -11.9830629162006 | etot = 0.84603147153323
7620000  ekin = 5.84361942609855 |  erot = 4.42577120389591 | epot = -12.4951957637513 | etot = -2.22580513375688
7640000  ekin = 6.49880072864267 |  erot = 5.83269153206166 | epot = -13.6414435645056 | etot = -1.30995130380122
7660000  ekin = 5.56095061305925 |  erot = 6.78678074235468 | epot = -11.6314590297329 | etot = 0.716272325680997
7680000  ekin = 6.49281409587184 |  erot = 5.11193630887734 | epot = -12.7172368788998 | etot = -1.11248647415062
7700000  ekin = 4.54335015440683 |  erot = 5.80505849505791 | epot = -11.9650593247964 | etot = -1.61665067533165
7720000  ekin = 6.0269695584947 |  erot = 6.20857977556591 | epot = -13.7237379480191 | etot = -1.48818861395848
7740000  ekin = 6.59122573759975 |  erot = 6.3215828860591 | epot = -13.1248238650378 | etot = -0.212015241378905
7760000  ekin = 6.30524101229822 |  erot = 4.94907453463553 | epot = -13.4909226212756 | etot = -2.23660707434184
7780000  ekin = 6.11903261525846 |  erot = 4.83199853110438 | epot = -12.3217763504859 | etot = -1.37074520412301
7800000  ekin = 6.07365753260954 |  erot = 6.06918628823501 | epot = -12.4103604503067 | etot = -0.267516629462179
7820000  ekin = 5.48228372151422 |  erot = 6.40551510933299 | epot = -11.9383838759933 | etot = -0.0505850451460734
7840000  ekin = 7.54536787470042 |  erot = 6.67936743144909 | epot = -12.6206887855128 | etot = 1.60404652063668
7860000  ekin = 5.68289305113185 |  erot = 5.80797929227524 | epot = -10.7170430156022 | etot = 0.77382932780489
7880000  ekin = 7.07889534869709 |  erot = 5.65367499379035 | epot = -13.48225340728 | etot = -0.749683064792555
7900000  ekin = 6.73690618467908 |  erot = 5.61209248383215 | epot = -12.9729182523796 | etot = -0.623919583868346
7920000  ekin = 5.89847249224822 |  erot = 5.85153305933483 | epot = -11.9474882898434 | etot = -0.197482738260321
7940000  ekin = 5.78681934665024 |  erot = 5.63630910864534 | epot = -12.2236091250862 | etot = -0.800480669790613
7960000  ekin = 5.58880045966968 |  erot = 5.71220577074406 | epot = -10.3716621990014 | etot = 0.929344031412384
7980000  ekin = 5.5778481530148 |  erot = 5.85433072693844 | epot = -12.6575988780354 | etot = -1.22541999808218
8000000  ekin = 6.7690014515915 |  erot = 5.81652484691254 | epot = -12.3917236570958 | etot = 0.193802641408196
8020000  ekin = 6.4040125871413 |  erot = 6.25099065142362 | epot = -12.041963725293 | etot = 0.613039513271922
8040000  ekin = 6.32628344852641 |  erot = 5.69860957062889 | epot = -12.150792588907 | etot = -0.125899569751736
8060000  ekin = 6.53257916542005 |  erot = 6.27429017358709 | epot = -12.7255801613987 | etot = 0.0812891776084435
8080000  ekin = 7.57088853826128 |  erot = 7.24324533142796 | epot = -13.9169926400471 | etot = 0.897141229642186
8100000  ekin = 6.18173666228511 |  erot = 6.27911247310866 | epot = -12.88188222726 | etot = -0.421033091866246
8120000  ekin = 5.90734114600475 |  erot = 6.04668828811821 | epot = -12.2984686371209 | etot = -0.344439202997954
8140000  ekin = 6.82247506871194 |  erot = 5.55893872497056 | epot = -13.8974583052473 | etot = -1.5160445115648
8160000  ekin = 6.85250873767751 |  erot = 6.2846832073466 | epot = -11.3421588386711 | etot = 1.79503310635298
8180000  ekin = 5.3274535216757 |  erot = 6.53202245719335 | epot = -10.4988739699531 | etot = 1.36060200891596
8200000  ekin = 5.74039546680783 |  erot = 5.79861731937107 | epot = -11.1301278867491 | etot = 0.408884899429808
8220000  ekin = 5.4748656306918 |  erot = 7.45202925612041 | epot = -11.3550950584391 | etot = 1.57179982837313
8240000  ekin = 5.87309982322423 |  erot = 6.26709172604616 | epot = -12.6682208023895 | etot = -0.528029253119142
8260000  ekin = 5.14436664772323 |  erot = 7.23464016294705 | epot = -11.8310719140997 | etot = 0.547934896570576
8280000  ekin = 5.09700001019216 |  erot = 6.88753116487414 | epot = -10.9506658111087 | etot = 1.03386536395755
8300000  ekin = 6.25476087742512 |  erot = 6.22964916756075 | epot = -12.1636119354962 | etot = 0.320798109489649
8320000  ekin = 6.27290933312899 |  erot = 5.8134436980012 | epot = -11.7019366775192 | etot = 0.384416353610986
8340000  ekin = 6.96676311612913 |  erot = 6.23245794756679 | epot = -11.7518655521538 | etot = 1.44735551154212
8360000  ekin = 5.74195992351959 |  erot = 6.26263597787177 | epot = -11.9291378628355 | etot = 0.0754580385558583
8380000  ekin = 5.52497155495405 |  erot = 7.18848047726273 | epot = -12.2380060674664 | etot = 0.475445964750364
8400000  ekin = 5.66762344700359 |  erot = 5.4694617329373 | epot = -11.5920656222636 | etot = -0.454980442322741
8420000  ekin = 5.70166833484238 |  erot = 5.14856169013727 | epot = -13.1612487236999 | etot = -2.31101869872021
8440000  ekin = 5.9690720225397 |  erot = 5.72052970396372 | epot = -12.9505150244583 | etot = -1.26091329795489
8460000  ekin = 5.46982570720348 |  erot = 6.44962492502352 | epot = -13.2616198559319 | etot = -1.34216922370489
8480000  ekin = 5.93452636622744 |  erot = 6.64503979635668 | epot = -11.5982847110593 | etot = 0.981281451524852
8500000  ekin = 5.67750586099358 |  erot = 6.11262177957194 | epot = -12.2760112681305 | etot = -0.485883627564988
8520000  ekin = 5.25745403157794 |  erot = 5.14925203573529 | epot = -11.3179485008402 | etot = -0.911242433526988
8540000  ekin = 5.77026241746643 |  erot = 5.90341961923015 | epot = -11.4327300886646 | etot = 0.240951948031956
8560000  ekin = 5.97257175366036 |  erot = 5.84173107474144 | epot = -12.369132092092 | etot = -0.554829263690191
8580000  ekin = 6.94873508805453 |  erot = 6.41352492182483 | epot = -12.7152937023516 | etot = 0.646966307527778
8600000  ekin = 6.42494553477534 |  erot = 5.83975211692782 | epot = -13.2122212626317 | etot = -0.947523610928524
8620000  ekin = 5.8770739789125 |  erot = 6.83373137668097 | epot = -13.0227197980837 | etot = -0.311914442490226
8640000  ekin = 6.18563558478554 |  erot = 5.59710832756944 | epot = -11.9629566942051 | etot = -0.180212781850138
8660000  ekin = 5.64266713288446 |  erot = 5.63631560168335 | epot = -12.0964791133711 | etot = -0.817496378803311
8680000  ekin = 6.54665978944342 |  erot = 5.63329593462914 | epot = -13.2430867114203 | etot = -1.06313098734772
8700000  ekin = 6.06223062766813 |  erot = 6.73962932231033 | epot = -11.6657964716137 | etot = 1.13606347836478
8720000  ekin = 5.08303602321417 |  erot = 7.27729355117883 | epot = -11.1482076515031 | etot = 1.21212192288987
8740000  ekin = 6.65282903306404 |  erot = 6.52647101868935 | epot = -12.9193285075839 | etot = 0.259971544169506
8760000  ekin = 5.79389054088117 |  erot = 5.70384455533697 | epot = -13.2825304163045 | etot = -1.7847953200864
8780000  ekin = 5.43507488594021 |  erot = 5.8556334056379 | epot = -14.7865996025646 | etot = -3.49589131098651
8800000  ekin = 6.0813954683281 |  erot = 5.96095897072519 | epot = -14.6269883650306 | etot = -2.58463392597732
8820000  ekin = 6.35454867679995 |  erot = 5.30041427742823 | epot = -12.9982670817188 | etot = -1.3433041274906
8840000  ekin = 5.53285250600454 |  erot = 5.91497585946407 | epot = -12.8657618975541 | etot = -1.41793353208545
8860000  ekin = 6.20127700787857 |  erot = 6.26483029372583 | epot = -14.8640175988559 | etot = -2.39791029725154
8880000  ekin = 7.05042307261261 |  erot = 6.29494677170599 | epot = -14.1102520644254 | etot = -0.764882220106832
8900000  ekin = 4.89197788432147 |  erot = 6.08172094699025 | epot = -14.7930481532686 | etot = -3.8193493219569
8920000  ekin = 7.3227535321993 |  erot = 4.66740139928194 | epot = -14.5422032689369 | etot = -2.5520483374557
8940000  ekin = 7.52636899892316 |  erot = 5.16670002076865 | epot = -15.2548309047856 | etot = -2.56176188509376
8960000  ekin = 6.98613300373349 |  erot = 5.50693324176985 | epot = -14.1617834014664 | etot = -1.66871715596303
8980000  ekin = 6.06488984264487 |  erot = 6.3823494665374 | epot = -14.1950578717431 | etot = -1.74781856256078
9000000  ekin = 7.33499025740156 |  erot = 5.31834451746595 | epot = -13.5800615886063 | etot = -0.926726813738822
9020000  ekin = 5.12925996639998 |  erot = 6.20652614723328 | epot = -14.682348547602 | etot = -3.34656243396875
9040000  ekin = 6.51959026482884 |  erot = 5.25807483699364 | epot = -13.9043268601585 | etot = -2.12666175833605
9060000  ekin = 5.99894396865429 |  erot = 5.76915776048196 | epot = -14.0614188468626 | etot = -2.29331711772633
9080000  ekin = 7.11766951783933 |  erot = 6.19516842958193 | epot = -11.912711989153 | etot = 1.40012595826823
9100000  ekin = 7.6639832585003 |  erot = 6.00216130863561 | epot = -13.9129526923906 | etot = -0.246808125254704
9120000  ekin = 5.47267078327753 |  erot = 7.33039258107724 | epot = -13.5353165250849 | etot = -0.732253160730131
9140000  ekin = 5.07656194347983 |  erot = 6.61253353651592 | epot = -13.4653344057408 | etot = -1.77623892574504
9160000  ekin = 5.66523673503543 |  erot = 7.56786625691471 | epot = -13.3840345435363 | etot = -0.150931551586179
9180000  ekin = 6.60984550671246 |  erot = 6.56559290698447 | epot = -12.6999473003334 | etot = 0.475491113363512
9200000  ekin = 5.14928871966033 |  erot = 6.37599529740659 | epot = -14.387824774578 | etot = -2.86254075751113
9220000  ekin = 5.69905121580303 |  erot = 6.74297990611482 | epot = -12.3963641336525 | etot = 0.0456669882653387
9240000  ekin = 4.9376938674743 |  erot = 7.0027776767631 | epot = -12.0593186850489 | etot = -0.118847140811527
9260000  ekin = 6.77931502746303 |  erot = 4.34941166810994 | epot = -12.957149008525 | etot = -1.82842231295204
9280000  ekin = 5.79796317591728 |  erot = 5.24855980480518 | epot = -13.0772623357159 | etot = -2.03073935499347
9300000  ekin = 6.42367554236753 |  erot = 6.22948277128288 | epot = -12.9075552944941 | etot = -0.254396980843657
9320000  ekin = 5.20347747898546 |  erot = 6.61942665783841 | epot = -12.5762991842443 | etot = -0.753395047420442
9340000  ekin = 6.04132815260455 |  erot = 3.89227232666208 | epot = -12.9162223088527 | etot = -2.98262182958601
9360000  ekin = 5.55139458436559 |  erot = 5.57569340908372 | epot = -12.7950602314957 | etot = -1.66797223804642
9380000  ekin = 5.13333251690627 |  erot = 5.96543213737547 | epot = -12.018721500339 | etot = -0.919956846057294
9400000  ekin = 6.45539898523588 |  erot = 5.3437719362606 | epot = -11.4794794563844 | etot = 0.319691465112125
9420000  ekin = 4.95911939969407 |  erot = 6.25945131069598 | epot = -12.5499610755277 | etot = -1.33139036513768
9440000  ekin = 7.01609142353037 |  erot = 5.53071131716778 | epot = -11.5482522145284 | etot = 0.99855052616974
9460000  ekin = 4.51517664884338 |  erot = 5.10039098753999 | epot = -12.4742643634216 | etot = -2.8586967270382
9480000  ekin = 6.05653746506139 |  erot = 5.3729286954378 | epot = -13.3342609055797 | etot = -1.90479474508049
9500000  ekin = 6.38626011669617 |  erot = 5.93384532847146 | epot = -14.0101997444975 | etot = -1.69009429932989
9520000  ekin = 5.73849700891538 |  erot = 6.65686428242182 | epot = -13.3203518633974 | etot = -0.924990572060178
9540000  ekin = 5.41298126721997 |  erot = 5.16518538469308 | epot = -13.8493514935765 | etot = -3.27118484166349
9560000  ekin = 4.98578183961921 |  erot = 7.6759427108035 | epot = -12.1571983865513 | etot = 0.504526163871379
9580000  ekin = 4.76392434896244 |  erot = 5.58238001126661 | epot = -13.364020173035 | etot = -3.01771581280592
9600000  ekin = 4.97538389186061 |  erot = 6.85737459281497 | epot = -12.0552939032368 | etot = -0.222535418561254
9620000  ekin = 6.08226430851423 |  erot = 6.27209762084314 | epot = -10.425048368879 | etot = 1.92931356047839
9640000  ekin = 6.15437240535369 |  erot = 5.11251994957206 | epot = -11.5228319447042 | etot = -0.25593958977842
9660000  ekin = 5.67359546419989 |  erot = 5.92157374952174 | epot = -11.4622691291634 | etot = 0.132900084558186
9680000  ekin = 6.53546953614721 |  erot = 5.12228137388953 | epot = -12.3868290444715 | etot = -0.729078134434744
9700000  ekin = 6.53806743401881 |  erot = 7.16374095061631 | epot = -11.4321528463459 | etot = 2.26965553828919
9720000  ekin = 6.45834828770684 |  erot = 5.57984117745303 | epot = -12.2566886917206 | etot = -0.218499226560752
9740000  ekin = 6.54485445317221 |  erot = 6.46001164219653 | epot = -10.760048738397 | etot = 2.24481735697171
9760000  ekin = 5.26753042287914 |  erot = 6.58094616174857 | epot = -12.9432849382268 | etot = -1.09480835359912
9780000  ekin = 4.61415847059871 |  erot = 5.29811361589182 | epot = -12.5192919361466 | etot = -2.60701984965611
9800000  ekin = 6.59117906874373 |  erot = 6.49830826942763 | epot = -11.907185504576 | etot = 1.18230183359537
9820000  ekin = 5.98849875463659 |  erot = 6.29503556269949 | epot = -13.4466465874974 | etot = -1.1631122701613
9840000  ekin = 6.76841018075259 |  erot = 5.55702662431549 | epot = -9.7580987961109 | etot = 2.56733800895718
9860000  ekin = 6.95129870437846 |  erot = 6.52995651291085 | epot = -14.3966187927832 | etot = -0.915363575493911
9880000  ekin = 6.79119726002811 |  erot = 7.19183020661978 | epot = -12.9218430065263 | etot = 1.0611844601216
9900000  ekin = 5.41821799019612 |  erot = 6.56940161409279 | epot = -13.2239202807541 | etot = -1.23630067646517
9920000  ekin = 5.91666940781677 |  erot = 5.59622950506295 | epot = -12.6571386332092 | etot = -1.14423972032951
9940000  ekin = 6.80279519038671 |  erot = 5.98753539150526 | epot = -14.1421775935535 | etot = -1.35184701166156
9960000  ekin = 4.860747540885 |  erot = 5.89567624315322 | epot = -11.7843779948174 | etot = -1.02795421077918
9980000  ekin = 5.71182443796944 |  erot = 5.75308994448659 | epot = -12.9280813583287 | etot = -1.46316697587264
10000000  ekin = 5.83963499554514 |  erot = 5.23897482185934 | epot = -11.745759474975 | etot = -0.667149657570482
10020000  ekin = 5.36605135349884 |  erot = 5.23541573858553 | epot = -13.7097299410379 | etot = -3.10826284895348
10040000  ekin = 5.7535356281516 |  erot = 5.21096879816188 | epot = -13.6079877487017 | etot = -2.64348332238825
10040000 0.0020511713 -0.0078543602 0.00058125074 -0.0041979969 -4.5503413e-05 
Loop time of 2946.13 on 1 procs for 10000000 steps with 1871 atoms

Performance: 879798.678 tau/day, 3394.285 timesteps/s
100.0% CPU use with 1 MPI tasks x 1 OpenMP threads

MPI task timing breakdown:
Section |  min time  |  avg time  |  max time  |%varavg| %total
---------------------------------------------------------------
Pair    | 1732.5     | 1732.5     | 1732.5     |   0.0 | 58.80
Bond    | 55.209     | 55.209     | 55.209     |   0.0 |  1.87
Neigh   | 11.597     | 11.597     | 11.597     |   0.0 |  0.39
Comm    | 211.5      | 211.5      | 211.5      |   0.0 |  7.18
Output  | 3.6001e-05 | 3.6001e-05 | 3.6001e-05 |   0.0 |  0.00
Modify  | 768.46     | 768.46     | 768.46     |   0.0 | 26.08
Other   |            | 166.9      |            |       |  5.67

Nlocal:    1871 ave 1871 max 1871 min
Histogram: 1 0 0 0 0 0 0 0 0 0
Nghost:    1056 ave 1056 max 1056 min
Histogram: 1 0 0 0 0 0 0 0 0 0
Neighs:    958 ave 958 max 958 min
Histogram: 1 0 0 0 0 0 0 0 0 0

Total # of neighbors = 958
Ave neighs/atom = 0.512026
Ave special neighs/atom = 0.12186
Neighbor list builds = 1686
Dangerous builds = 0
Finding 1-2 1-3 1-4 neighbors ...
 Special bond factors lj:   0          1          1         
 Special bond factors coul: 1          1          1         
Neighbor list info ...
  update every 1 steps, delay 0 steps, check yes
  max neighbors/atom: 2000, page size: 100000
  master list distance cutoff = 2.6274
  ghost atom cutoff = 2.6274
  binsize = 1.3137, bins = 16 16 229
  6 neighbor lists, perpetual/occasional/extra = 6 0 0
  (1) pair oxdna2/excv, perpetual
      attributes: half, newton off
      pair build: half/bin/newtoff
      stencil: half/bin/3d/newtoff
      bin: standard
  (2) pair oxdna2/stk, perpetual, skip from (1)
      attributes: half, newton off
      pair build: skip
      stencil: none
      bin: none
  (3) pair oxdna2/hbond, perpetual, copy from (2)
      attributes: half, newton off
      pair build: copy
      stencil: none
      bin: none
  (4) pair oxdna2/xstk, perpetual, copy from (2)
      attributes: half, newton off
      pair build: copy
      stencil: none
      bin: none
  (5) pair oxdna2/coaxstk, perpetual, copy from (2)
      attributes: half, newton off
      pair build: copy
      stencil: none
      bin: none
  (6) pair oxdna2/dh, perpetual, skip from (1)
      attributes: half, newton off
      pair build: skip
      stencil: none
      bin: none
Setting up Verlet run ...
  Unit style    : lj
  Current step  : 10040000
  Time step     : 0.003
Per MPI rank memory allocation (min/avg/max) = 12.65 | 12.65 | 12.65 Mbytes
Step Temp E_pair E_mol TotEng Press 
10040000 0.0020511713 -0.0078543602 0.00058125074 -0.0041979969 -4.5503413e-05 
10060000  ekin = 5.38263631359969 |  erot = 6.71982747461644 | epot = -12.9499689435835 | etot = -0.84750515536741
10080000  ekin = 5.87434871773328 |  erot = 6.80852156096715 | epot = -11.5478592568072 | etot = 1.13501102189325
10100000  ekin = 7.28408621214454 |  erot = 6.62869477194528 | epot = -12.7554195621347 | etot = 1.15736142195507
10120000  ekin = 5.82596013235835 |  erot = 5.58834629224916 | epot = -14.3492490351785 | etot = -2.93494261057097
10140000  ekin = 5.58670194721061 |  erot = 5.77334281909235 | epot = -12.1020999173837 | etot = -0.742055151080779
10160000  ekin = 5.98028700562893 |  erot = 6.2211699164263 | epot = -12.9372867896009 | etot = -0.735829867545704
10180000  ekin = 5.82391352355642 |  erot = 6.37776772624663 | epot = -14.803806046555 | etot = -2.60212479675193
10200000  ekin = 5.63036209755509 |  erot = 6.22293170135063 | epot = -13.2040080610627 | etot = -1.35071426215694
10220000  ekin = 6.36898319940478 |  erot = 6.16233082102033 | epot = -13.2947205617121 | etot = -0.763406541286997
10240000  ekin = 6.10645474314012 |  erot = 5.83763585588161 | epot = -13.8955109784301 | etot = -1.95142037940839
10260000  ekin = 5.40264030689951 |  erot = 5.68818249142443 | epot = -13.2700149061847 | etot = -2.17919210786071
10280000  ekin = 5.57202465410738 |  erot = 6.07367113915985 | epot = -12.0246514720567 | etot = -0.378955678789417
10300000  ekin = 6.03848273419993 |  erot = 4.84526321071047 | epot = -13.0206854318693 | etot = -2.13693948695888
10320000  ekin = 7.42253457717269 |  erot = 6.18398645426054 | epot = -12.8920693646019 | etot = 0.714451666831291
10340000  ekin = 4.8964592813269 |  erot = 5.16049230193587 | epot = -14.2566609782183 | etot = -4.1997093949555
10360000  ekin = 5.98188689888708 |  erot = 5.57015166856046 | epot = -14.5157024995897 | etot = -2.96366393214211
10380000  ekin = 6.28427773387625 |  erot = 4.78527621990262 | epot = -13.8639059345616 | etot = -2.79435198078274
10400000  ekin = 4.58711796590215 |  erot = 6.50465904421259 | epot = -14.1037446189673 | etot = -3.01196760885256
10420000  ekin = 6.37356006197536 |  erot = 6.18629001282262 | epot = -11.7539995470727 | etot = 0.805850527725257
10440000  ekin = 5.90567733761513 |  erot = 5.48380018733837 | epot = -13.3151556921972 | etot = -1.92567816724373
10460000  ekin = 5.73238832758487 |  erot = 6.01091923140479 | epot = -14.4043457688215 | etot = -2.66103820983184
10480000  ekin = 5.9494590770882 |  erot = 5.02738795248917 | epot = -13.6121465463627 | etot = -2.63529951678534
10500000  ekin = 5.90221381439033 |  erot = 5.69705924178399 | epot = -13.2795921666675 | etot = -1.68031911049323
10520000  ekin = 6.14950328961489 |  erot = 5.83505253869038 | epot = -11.9455705407653 | etot = 0.0389852875399335
10540000  ekin = 5.07154633740886 |  erot = 6.49452344825678 | epot = -12.5250899031449 | etot = -0.95902011747927
10560000  ekin = 6.38017801695377 |  erot = 6.26805010679726 | epot = -12.9396139281119 | etot = -0.291385804360914
10580000  ekin = 5.69012062896117 |  erot = 5.52211519254433 | epot = -13.6063495448468 | etot = -2.3941137233413
10600000  ekin = 6.48239764319776 |  erot = 5.94707137872702 | epot = -13.5765724332326 | etot = -1.14710341130786
10620000  ekin = 6.14287530084252 |  erot = 5.55411766978522 | epot = -13.2040134060634 | etot = -1.5070204354357
10640000  ekin = 6.89343718853807 |  erot = 6.77172860813257 | epot = -12.644219290763 | etot = 1.02094650590768
10660000  ekin = 6.15286627499399 |  erot = 5.85388903352374 | epot = -11.6832689187414 | etot = 0.323486389776342
10680000  ekin = 5.20659184745811 |  erot = 5.46402560492358 | epot = -12.0472966786413 | etot = -1.37667922625957
10700000  ekin = 5.77400993309482 |  erot = 5.12810588925995 | epot = -11.5429100655586 | etot = -0.640794243203841
10720000  ekin = 7.25855174748941 |  erot = 5.76943560289 | epot = -10.7586508671258 | etot = 2.26933648325365
10740000  ekin = 5.3275173896503 |  erot = 5.58506636012978 | epot = -11.2719696841178 | etot = -0.359385934337695
10760000  ekin = 5.85487323192555 |  erot = 6.76187986325037 | epot = -10.4193455103925 | etot = 2.1974075847834
10780000  ekin = 6.14532513401704 |  erot = 5.03169576671765 | epot = -12.9651748883944 | etot = -1.78815398765972
10800000  ekin = 6.02233808653355 |  erot = 4.75220560660301 | epot = -11.6057931099609 | etot = -0.831249416824381
10820000  ekin = 5.75750380938062 |  erot = 5.88110906326642 | epot = -11.7624918047288 | etot = -0.123878932081789
10840000  ekin = 5.73502308180393 |  erot = 6.9531967128434 | epot = -11.3993946962593 | etot = 1.28882509838804
10860000  ekin = 5.54178822437826 |  erot = 6.27477648155983 | epot = -12.3429656106254 | etot = -0.526400904687321
10880000  ekin = 6.86612990947803 |  erot = 6.2835832181978 | epot = -12.4613249718399 | etot = 0.688388155835941
10900000  ekin = 5.30358718646419 |  erot = 6.72137095183418 | epot = -13.055197450417 | etot = -1.03023931211868
10920000  ekin = 7.01652931089316 |  erot = 5.79232922350955 | epot = -12.7560004759434 | etot = 0.0528580584592646
10940000  ekin = 5.84642570824899 |  erot = 4.92824718724858 | epot = -12.3477027114816 | etot = -1.57302981598402
10960000  ekin = 5.01993414434408 |  erot = 6.70650911762586 | epot = -12.8483164247198 | etot = -1.12187316274982
10980000  ekin = 6.20289424985934 |  erot = 4.07532237833768 | epot = -14.9655862175888 | etot = -4.68736958939181
11000000  ekin = 6.0463459798199 |  erot = 6.28524491017851 | epot = -12.1526954489377 | etot = 0.178895441060668
11020000  ekin = 6.32345717459234 |  erot = 6.39193000489669 | epot = -12.6732992167783 | etot = 0.0420879627107169
11040000  ekin = 6.0740836648652 |  erot = 5.83747500350421 | epot = -11.879228500908 | etot = 0.0323301674613763
11060000  ekin = 4.98326743800523 |  erot = 6.43082975661893 | epot = -12.6891757120015 | etot = -1.27507851737731
11080000  ekin = 6.37186688417767 |  erot = 5.38823991925962 | epot = -12.1529627700465 | etot = -0.392855966609257
11100000  ekin = 5.90104492122409 |  erot = 5.73470920199859 | epot = -12.4366668926961 | etot = -0.800912769473374
11120000  ekin = 7.56192515919788 |  erot = 6.82748718885645 | epot = -12.8473040281152 | etot = 1.54210831993914
11140000  ekin = 5.68399922015944 |  erot = 5.68768719271676 | epot = -9.38728910647095 | etot = 1.98439730640524
11160000  ekin = 5.73056494459239 |  erot = 5.76974784220347 | epot = -11.3792342859046 | etot = 0.121078500891299
11180000  ekin = 4.75884157584957 |  erot = 5.77258191958284 | epot = -12.0410865702101 | etot = -1.50966307477767
11200000  ekin = 5.33496520844507 |  erot = 6.24227633914451 | epot = -10.6107875002885 | etot = 0.966454047301117
11220000  ekin = 6.30950027199783 |  erot = 7.04280203703523 | epot = -9.36996577464601 | etot = 3.98233653438705
11240000  ekin = 5.59857419028562 |  erot = 5.55950560704837 | epot = -12.0407687914899 | etot = -0.882688994155876
11260000  ekin = 6.82800658843174 |  erot = 5.86595725585035 | epot = -11.5367611806265 | etot = 1.15720266365562
11280000  ekin = 5.52824461780015 |  erot = 6.21780501099053 | epot = -12.4948705092394 | etot = -0.74882088044869
11300000  ekin = 5.88463538278025 |  erot = 6.28009162926295 | epot = -11.8281776438069 | etot = 0.336549368236282
11320000  ekin = 6.60436132076951 |  erot = 6.11009669359312 | epot = -14.1392706860571 | etot = -1.42481267169442
11340000  ekin = 4.99013730835807 |  erot = 5.95743335231582 | epot = -12.7154673384247 | etot = -1.76789667775076
11360000  ekin = 4.97440385436881 |  erot = 6.40541724883352 | epot = -13.4515324984726 | etot = -2.0717113952703
11380000  ekin = 6.04657825834853 |  erot = 6.9213779678765 | epot = -13.9682556965082 | etot = -1.00029947028312
11400000  ekin = 5.10882299555486 |  erot = 6.0889537076608 | epot = -12.026429398936 | etot = -0.82865269572031
11420000  ekin = 5.4760388772338 |  erot = 5.9376019846205 | epot = -11.3556102165416 | etot = 0.0580306453126553
11440000  ekin = 7.2732687887774 |  erot = 5.84816776242192 | epot = -12.4093675234974 | etot = 0.712069027701949
11460000  ekin = 6.25933080455299 |  erot = 5.19281938299705 | epot = -11.2862598707983 | etot = 0.165890316751712
11480000  ekin = 5.70488608509781 |  erot = 6.94722581051553 | epot = -11.524920969481 | etot = 1.1271909261323
11500000  ekin = 5.94577749012562 |  erot = 5.8007484980695 | epot = -11.8887456590373 | etot = -0.142219670842168
11520000  ekin = 7.57133726453555 |  erot = 6.85553224913919 | epot = -12.7452965261287 | etot = 1.68157298754603
11540000  ekin = 7.2155573898454 |  erot = 5.71814389145979 | epot = -10.8921705586484 | etot = 2.04153072265676
11560000  ekin = 6.35915591398856 |  erot = 6.99445602218263 | epot = -12.0886328621812 | etot = 1.26497907399001
11580000  ekin = 6.26864815850914 |  erot = 6.39486201065668 | epot = -12.9813158363785 | etot = -0.317805667212648
11600000  ekin = 6.93344377495829 |  erot = 6.74463480606112 | epot = -13.4628351033626 | etot = 0.215243477656809
11620000  ekin = 5.9072337663314 |  erot = 5.72147259135053 | epot = -12.1759172960857 | etot = -0.547210938403772
11640000  ekin = 6.12341740199656 |  erot = 5.37036966360213 | epot = -11.6722063120632 | etot = -0.178419246464475
11660000  ekin = 5.37021934968231 |  erot = 5.70253633706093 | epot = -11.3452324293174 | etot = -0.272476742574144
11680000  ekin = 6.69286972178481 |  erot = 5.42587331953598 | epot = -11.8950332546535 | etot = 0.223709786667269
11700000  ekin = 6.52085083391099 |  erot = 5.30171840302969 | epot = -10.3534945478793 | etot = 1.46907468906136
11720000  ekin = 6.33376905460288 |  erot = 5.96031881709028 | epot = -12.0128890682236 | etot = 0.281198803469557
11740000  ekin = 7.7071669590116 |  erot = 6.75894932697877 | epot = -12.9513463325646 | etot = 1.51476995342576
11760000  ekin = 5.65294581482398 |  erot = 4.96073089521327 | epot = -14.3128179265296 | etot = -3.69914121649237
11780000  ekin = 7.14117063325378 |  erot = 6.15423674824775 | epot = -13.3162619663762 | etot = -0.0208545848746819
11800000  ekin = 5.56626524975179 |  erot = 5.93200888988896 | epot = -14.2498613650362 | etot = -2.75158722539549
11820000  ekin = 6.15770505009355 |  erot = 6.03962736913126 | epot = -14.8398437834543 | etot = -2.64251136422943
11840000  ekin = 6.09591347039806 |  erot = 5.15281670755518 | epot = -11.201366389761 | etot = 0.0473637881922322
11860000  ekin = 4.9053479390891 |  erot = 6.45048047312496 | epot = -14.4856354651889 | etot = -3.12980705297482
11880000  ekin = 6.97418822256837 |  erot = 6.93907214512892 | epot = -14.8180825082814 | etot = -0.904822140584105
11900000  ekin = 7.07244106536427 |  erot = 5.70445704526361 | epot = -14.3251107714568 | etot = -1.54821266082895
11920000  ekin = 5.55980391833295 |  erot = 5.63720667043716 | epot = -13.8400415567512 | etot = -2.6430309679811
11940000  ekin = 5.20515657484306 |  erot = 4.57662624341965 | epot = -13.5582812454508 | etot = -3.77649842718812
11960000  ekin = 7.06964795260644 |  erot = 5.65300910073056 | epot = -14.3190852454286 | etot = -1.59642819209164
11980000  ekin = 5.72658661989647 |  erot = 5.88378309187159 | epot = -14.6431416092001 | etot = -3.03277189743208
12000000  ekin = 5.90992037069878 |  erot = 5.44955162556641 | epot = -13.7304328780776 | etot = -2.37096088181236
12020000  ekin = 6.82248275961622 |  erot = 6.39160513220937 | epot = -13.7126175120766 | etot = -0.498529620250986
[...]
13880000  ekin = 5.99099392586769 |  erot = 6.67681135672268 | epot = -12.5628723133729 | etot = 0.104932969217472
13900000  ekin = 6.45112252622395 |  erot = 7.49697549049097 | epot = -14.0289204753354 | etot = -0.0808224586204656
13920000  ekin = 5.38186805863477 |  erot = 5.05440339094371 | epot = -13.5523680476298 | etot = -3.11609659805129
13940000  ekin = 6.11317132745025 |  erot = 5.20005486785776 | epot = -13.1571174500183 | etot = -1.84389125471033
13960000  ekin = 5.8577944969604 |  erot = 5.3924913032358 | epot = -13.3730689596742 | etot = -2.12278315947804
13980000  ekin = 6.9870016344943 |  erot = 6.37793169133158 | epot = -10.9420896204165 | etot = 2.42284370540936
14000000  ekin = 5.30146878495428 |  erot = 6.01213033482193 | epot = -13.4784294332674 | etot = -2.16483031349121
14020000  ekin = 5.86460730945948 |  erot = 6.50668330012313 | epot = -13.2627490181074 | etot = -0.891458408524747
14040000  ekin = 6.74237868381512 |  erot = 6.82899664005784 | epot = -13.6550814980973 | etot = -0.0837061742243677
14060000  ekin = 5.56020489490006 |  erot = 6.28944656864386 | epot = -13.0691153520957 | etot = -1.21946388855173
14080000  ekin = 5.57459202843856 |  erot = 5.72737353932552 | epot = -13.3615717167144 | etot = -2.05960614895032
14100000  ekin = 7.27213762943023 |  erot = 5.59660680275689 | epot = -13.0809803489864 | etot = -0.21223591679923
14120000  ekin = 5.67280059901909 |  erot = 6.72506053020259 | epot = -13.8522450351578 | etot = -1.45438390593615
14140000  ekin = 6.19425776451085 |  erot = 5.77177971350984 | epot = -15.1451247038248 | etot = -3.17908722580411
14160000  ekin = 5.97116813063196 |  erot = 7.07550806457269 | epot = -14.9548177070475 | etot = -1.90814151184288
14180000  ekin = 6.54648057163491 |  erot = 6.6616452124797 | epot = -15.1740921691576 | etot = -1.96596638504294
14200000  ekin = 6.4063253185405 |  erot = 5.9245216315884 | epot = -14.4489079908303 | etot = -2.11806104070145
14220000  ekin = 5.17494640738302 |  erot = 5.86488624174851 | epot = -15.4834531467133 | etot = -4.44362049758179
14240000  ekin = 6.28943787570239 |  erot = 6.88638345318585 | epot = -11.998514510433 | etot = 1.17730681845525
14260000  ekin = 6.659230189808 |  erot = 5.8893139074681 | epot = -13.0294098617231 | etot = -0.480865764446985
14280000  ekin = 5.61424189015944 |  erot = 7.35357456616894 | epot = -13.7846421290115 | etot = -0.816825672683125
14300000  ekin = 6.28680659596823 |  erot = 5.71882277337571 | epot = -13.2933317559146 | etot = -1.2877023865707
14320000  ekin = 5.39267851075412 |  erot = 5.61453295508135 | epot = -13.5697832993793 | etot = -2.56257183354386
14340000  ekin = 5.88735103002056 |  erot = 4.69712080031121 | epot = -13.8523516522895 | etot = -3.26787982195773
14360000  ekin = 4.92630092738209 |  erot = 5.33229662353568 | epot = -13.2912567934697 | etot = -3.03265924255198
14380000  ekin = 6.09988384477227 |  erot = 5.43544848849544 | epot = -13.1071889864826 | etot = -1.57185665321493
14400000  ekin = 6.10166241140475 |  erot = 5.64365800259855 | epot = -15.0187178084216 | etot = -3.27339739441825
14420000  ekin = 5.63438041536966 |  erot = 5.68442369753153 | epot = -13.8554816938813 | etot = -2.53667758098011
14440000  ekin = 6.58250003059469 |  erot = 5.61452560976721 | epot = -14.5424144594736 | etot = -2.34538881911172
14440000 0.0023467023 -0.0088400342 0.0010674984 -0.0042543637 -6.7142754e-05 
Loop time of 917.555 on 1 procs for 2200000 steps with 1871 atoms

Performance: 621478.028 tau/day, 2397.678 timesteps/s
100.0% CPU use with 1 MPI tasks x 1 OpenMP threads

MPI task timing breakdown:
Section |  min time  |  avg time  |  max time  |%varavg| %total
---------------------------------------------------------------
Pair    | 411.37     | 411.37     | 411.37     |   0.0 | 44.83
Bond    | 12.166     | 12.166     | 12.166     |   0.0 |  1.33
Neigh   | 2.558      | 2.558      | 2.558      |   0.0 |  0.28
Comm    | 47.071     | 47.071     | 47.071     |   0.0 |  5.13
Output  | 0.038646   | 0.038646   | 0.038646   |   0.0 |  0.00
Modify  | 407.03     | 407.03     | 407.03     |   0.0 | 44.36
Other   |            | 37.32      |            |       |  4.07

Nlocal:    1871 ave 1871 max 1871 min
Histogram: 1 0 0 0 0 0 0 0 0 0
Nghost:    1056 ave 1056 max 1056 min
Histogram: 1 0 0 0 0 0 0 0 0 0
Neighs:    966 ave 966 max 966 min
Histogram: 1 0 0 0 0 0 0 0 0 0

Total # of neighbors = 966
Ave neighs/atom = 0.516301
Ave special neighs/atom = 0.12186
Neighbor list builds = 365
Dangerous builds = 0
Finding 1-2 1-3 1-4 neighbors ...
 Special bond factors lj:   0          1          1         
 Special bond factors coul: 1          1          1         
Neighbor list info ...
  update every 1 steps, delay 0 steps, check yes
  max neighbors/atom: 2000, page size: 100000
  master list distance cutoff = 2.6274
  ghost atom cutoff = 2.6274
  binsize = 1.3137, bins = 16 16 229
  6 neighbor lists, perpetual/occasional/extra = 6 0 0
  (1) pair oxdna2/excv, perpetual
      attributes: half, newton off
      pair build: half/bin/newtoff
      stencil: half/bin/3d/newtoff
      bin: standard
  (2) pair oxdna2/stk, perpetual, skip from (1)
      attributes: half, newton off
      pair build: skip
      stencil: none
      bin: none
  (3) pair oxdna2/hbond, perpetual, copy from (2)
      attributes: half, newton off
      pair build: copy
      stencil: none
      bin: none
  (4) pair oxdna2/xstk, perpetual, copy from (2)
      attributes: half, newton off
      pair build: copy
      stencil: none
      bin: none
  (5) pair oxdna2/coaxstk, perpetual, copy from (2)
      attributes: half, newton off
      pair build: copy
      stencil: none
      bin: none
  (6) pair oxdna2/dh, perpetual, skip from (1)
      attributes: half, newton off
      pair build: skip
      stencil: none
      bin: none
Setting up Verlet run ...
  Unit style    : lj
  Current step  : 14440000
  Time step     : 0.003
Per MPI rank memory allocation (min/avg/max) = 12.65 | 12.65 | 12.65 Mbytes
Step Temp E_pair E_mol TotEng Press 
14440000 0.0023467023 -0.0088400342 0.0010674984 -0.0042543637 -6.7142754e-05 
14460000  ekin = 5.78123485588645 |  erot = 6.7041436159954 | epot = -13.7000720847195 | etot = -1.21469361283766
14480000  ekin = 5.38457448537984 |  erot = 5.49479247147389 | epot = -13.228644331677 | etot = -2.34927737482329
14500000  ekin = 5.26833222881397 |  erot = 6.77975269166397 | epot = -14.0994731212351 | etot = -2.05138820075717
14520000  ekin = 5.84613218030843 |  erot = 6.37654889616061 | epot = -13.9739001973372 | etot = -1.75121912086821
14540000  ekin = 4.44562169536708 |  erot = 5.81838050421785 | epot = -12.8790120110266 | etot = -2.61500981144171
14560000  ekin = 6.08167212828372 |  erot = 5.26725976146369 | epot = -13.9208719870981 | etot = -2.57194009735065
14580000  ekin = 7.40383581345882 |  erot = 5.26167929483223 | epot = -13.0378522294318 | etot = -0.372337121140724
14600000  ekin = 5.62209895033055 |  erot = 6.11069445854911 | epot = -13.2145084622364 | etot = -1.48171505335677
14620000  ekin = 6.02681006012245 |  erot = 5.75939889273895 | epot = -10.7988497352796 | etot = 0.987359217581849
14640000  ekin = 4.70447433522769 |  erot = 5.10398950575455 | epot = -13.8616194434478 | etot = -4.05315560246553
14660000  ekin = 5.17799101339397 |  erot = 6.16160925619693 | epot = -14.2003294615517 | etot = -2.86072919196084
14680000  ekin = 6.12986972813688 |  erot = 4.23781349096518 | epot = -13.7344347141438 | etot = -3.36675149504176
14700000  ekin = 6.0709634386547 |  erot = 5.39609405816152 | epot = -12.2704801731891 | etot = -0.803422676372906
14720000  ekin = 7.24062175181162 |  erot = 5.83985057870653 | epot = -13.028962703607 | etot = 0.0515096269111091
14740000  ekin = 4.82546696729077 |  erot = 5.7288778337068 | epot = -13.4039551074485 | etot = -2.84961030645095
14760000  ekin = 5.35031889926943 |  erot = 5.73678593487513 | epot = -14.5092024347644 | etot = -3.42209760061979
14780000  ekin = 4.92715808931967 |  erot = 6.16555940080618 | epot = -14.1506554447087 | etot = -3.05793795458287
14800000  ekin = 6.18967466684003 |  erot = 7.4375104263891 | epot = -13.2394546711148 | etot = 0.387730422114316
14820000  ekin = 6.79833202800613 |  erot = 6.40868547878583 | epot = -14.5639281598488 | etot = -1.35691065305684
14840000  ekin = 5.31527946875688 |  erot = 5.3773508274056 | epot = -14.2964172679954 | etot = -3.60378697183293
14860000  ekin = 6.55989468275884 |  erot = 4.85459757866794 | epot = -15.2658234264942 | etot = -3.85133116506747
14880000  ekin = 6.90480762597161 |  erot = 6.63082572415936 | epot = -14.4813278251501 | etot = -0.945694475019145
14900000  ekin = 6.759171353539 |  erot = 6.77985327240921 | epot = -14.8927129288988 | etot = -1.35368830295063
14920000  ekin = 4.97696761285554 |  erot = 6.47128593618414 | epot = -13.8950387261406 | etot = -2.4467851771009
14940000  ekin = 6.28084931124494 |  erot = 5.64265311358278 | epot = -14.2143974652111 | etot = -2.29089504038341
14960000  ekin = 6.54737709011347 |  erot = 5.53958958812716 | epot = -11.9640129344055 | etot = 0.122953743835172
14980000  ekin = 6.86998745877329 |  erot = 5.96219689556193 | epot = -14.2297822810912 | etot = -1.39759792675593
15000000  ekin = 6.1154258190061 |  erot = 5.90712414230226 | epot = -15.0869196454225 | etot = -3.06436968411414
15020000  ekin = 6.54957912300097 |  erot = 5.73314426803527 | epot = -14.548993595855 | etot = -2.2662702048188
15040000  ekin = 6.72253002598907 |  erot = 6.43337964982854 | epot = -14.6157395747947 | etot = -1.45982989897707
15060000  ekin = 5.87929068076152 |  erot = 6.23458930827436 | epot = -14.7220277897888 | etot = -2.60814780075294
15080000  ekin = 6.42722275574111 |  erot = 6.42406227506577 | epot = -11.4259262663495 | etot = 1.42535876445735
15100000  ekin = 6.82240045547186 |  erot = 4.75440014538243 | epot = -13.5308395147934 | etot = -1.95403891393912
15120000  ekin = 6.57442515989745 |  erot = 6.13523061895368 | epot = -14.5987304629892 | etot = -1.88907468413802
15140000  ekin = 5.64952293723038 |  erot = 5.96111418523496 | epot = -13.1497869918555 | etot = -1.53914986939014
15160000  ekin = 5.9913514495121 |  erot = 5.07172195774503 | epot = -14.2977421244568 | etot = -3.2346687171997
15180000  ekin = 6.6237307111345 |  erot = 6.62603579483269 | epot = -13.3797315079118 | etot = -0.129965001944612
15200000  ekin = 5.69965770465577 |  erot = 5.27487113097799 | epot = -12.7610654677332 | etot = -1.78653663209941
15220000  ekin = 5.27101900094235 |  erot = 5.20842631399157 | epot = -13.6012125171972 | etot = -3.12176720226331
15240000  ekin = 6.05674193459198 |  erot = 6.20058999317708 | epot = -12.3436296225244 | etot = -0.0862976947553449
15260000  ekin = 6.52358747371299 |  erot = 5.45209219825635 | epot = -13.7382178627665 | etot = -1.76253819079714
15280000  ekin = 6.11191590573953 |  erot = 5.86656072176787 | epot = -13.9532919518426 | etot = -1.9748153243352
15300000  ekin = 5.50336428285607 |  erot = 5.99487306193426 | epot = -12.7704067605626 | etot = -1.27216941577223
15320000  ekin = 6.679550583572 |  erot = 5.63856769639937 | epot = -13.2525043461888 | etot = -0.93438606621746
15340000  ekin = 5.78144748988806 |  erot = 6.91887077404565 | epot = -15.1740376038231 | etot = -2.47371933988941
15360000  ekin = 6.27158562389891 |  erot = 6.89227561372126 | epot = -14.0173410476662 | etot = -0.853479810046014
15380000  ekin = 6.85774252629515 |  erot = 4.90428165335485 | epot = -15.0198920176221 | etot = -3.25786783797211
15400000  ekin = 5.70923138641788 |  erot = 6.27126458011852 | epot = -14.5738210353802 | etot = -2.59332506884376
15420000  ekin = 6.43363073894209 |  erot = 5.84629691738696 | epot = -13.3997008571717 | etot = -1.11977320084262
15440000  ekin = 6.53976719294726 |  erot = 5.59533396630841 | epot = -14.5949211481223 | etot = -2.45981998886661
15460000  ekin = 6.07308230511319 |  erot = 5.33217761370678 | epot = -13.7959825095197 | etot = -2.39072259069973
15480000  ekin = 5.75185714801027 |  erot = 6.37626066408281 | epot = -14.954615571354 | etot = -2.8264977592609
15500000  ekin = 6.18666129461509 |  erot = 6.04219628394237 | epot = -13.7582109384344 | etot = -1.52935335987695
15520000  ekin = 7.26520121597272 |  erot = 5.77344984886835 | epot = -13.7090040794689 | etot = -0.670353014627853
15540000  ekin = 6.96171890253598 |  erot = 6.17228182828159 | epot = -13.7671195094137 | etot = -0.633118778596156
15560000  ekin = 5.91767210913411 |  erot = 5.94001755970284 | epot = -15.3698025072301 | etot = -3.51211283839318
15580000  ekin = 6.49727742637303 |  erot = 5.71363854362657 | epot = -12.7446403780091 | etot = -0.533724408009485
15600000  ekin = 6.89690747029568 |  erot = 5.98774290307307 | epot = -15.2092710733174 | etot = -2.32462069994864
15620000  ekin = 6.54759056377063 |  erot = 5.73651631971124 | epot = -15.7170134613174 | etot = -3.43290657783551
15640000  ekin = 6.59788311422981 |  erot = 5.63742894479049 | epot = -14.0882270656574 | etot = -1.85291500663711
15660000  ekin = 8.22924488005036 |  erot = 5.10674212611976 | epot = -15.7774401892608 | etot = -2.44145318309072
15680000  ekin = 6.23592269418387 |  erot = 6.02873269633034 | epot = -16.6251966102537 | etot = -4.36054121973947
15700000  ekin = 5.97973580317176 |  erot = 5.76937654004812 | epot = -15.8580957274189 | etot = -4.108983384199
15720000  ekin = 6.59220735129867 |  erot = 6.44078711696359 | epot = -16.1515217889254 | etot = -3.11852732066318
15740000  ekin = 5.36966523579373 |  erot = 6.78853410753248 | epot = -15.7906350546165 | etot = -3.63243571129028
15760000  ekin = 5.89648542990472 |  erot = 6.06090075079822 | epot = -15.3599996427261 | etot = -3.40261346202312
15780000  ekin = 5.91074684992362 |  erot = 6.42256940841804 | epot = -15.1185243013575 | etot = -2.78520804301583
15800000  ekin = 4.84513172058494 |  erot = 7.41608617337161 | epot = -15.1393581520216 | etot = -2.87814025806502
15820000  ekin = 5.1427544052498 |  erot = 6.99112797066339 | epot = -14.7807342318219 | etot = -2.64685185590871
15840000  ekin = 6.34291331007244 |  erot = 5.69973847066513 | epot = -14.1566876109332 | etot = -2.11403583019567
15860000  ekin = 6.23629807715889 |  erot = 5.31570548453179 | epot = -16.7331623530603 | etot = -5.18115879136959
15880000  ekin = 6.33856178812802 |  erot = 5.76161241695348 | epot = -15.0003790632334 | etot = -2.90020485815185
15900000  ekin = 5.07731161797483 |  erot = 6.1877935689237 | epot = -15.1916354996108 | etot = -3.92653031271231
15920000  ekin = 5.92699261604839 |  erot = 5.50194174240082 | epot = -15.5882788429076 | etot = -4.15934448445836
15940000  ekin = 6.65951664624507 |  erot = 5.08878215379733 | epot = -15.2576997570222 | etot = -3.50940095697982
15960000  ekin = 7.66428407945422 |  erot = 6.36393458273905 | epot = -14.6272032643542 | etot = -0.598984602160922
15980000  ekin = 5.70205393158675 |  erot = 6.15507657080397 | epot = -14.9280778476633 | etot = -3.07094734527261
16000000  ekin = 5.84217432538921 |  erot = 5.42679358650298 | epot = -13.1875603026785 | etot = -1.9185923907863
16020000  ekin = 6.49679915333978 |  erot = 6.79558077166799 | epot = -15.1473634138659 | etot = -1.8549834888581
16040000  ekin = 6.50473898011406 |  erot = 7.25210591957005 | epot = -14.1689220173846 | etot = -0.412077117700498
16060000  ekin = 5.54460594106708 |  erot = 5.44800788525159 | epot = -14.836260991084 | etot = -3.84364716476537
16080000  ekin = 6.26960566098886 |  erot = 5.42210061704936 | epot = -14.1792160663668 | etot = -2.48750978832863
16100000  ekin = 5.78275619850293 |  erot = 4.9846254069524 | epot = -15.6969782026195 | etot = -4.92959659716421
16120000  ekin = 6.33948020059637 |  erot = 6.08921963070887 | epot = -15.8780179313216 | etot = -3.44931810001633
16140000  ekin = 5.9249473609632 |  erot = 5.85264716208949 | epot = -15.6377781052117 | etot = -3.86018358215903
16160000  ekin = 5.08015738405668 |  erot = 5.70907812624822 | epot = -15.5073647044394 | etot = -4.7181291941345
16180000  ekin = 5.99397646480152 |  erot = 6.13761648446106 | epot = -15.7563661475062 | etot = -3.62477319824363
16200000  ekin = 5.75163656597057 |  erot = 5.56853822258481 | epot = -13.4277955626639 | etot = -2.10762077410849
16220000  ekin = 6.45611642483792 |  erot = 6.18116296902674 | epot = -15.1373092626924 | etot = -2.5000298688277
16240000  ekin = 6.16412321056201 |  erot = 5.6079797796353 | epot = -14.5207547444232 | etot = -2.74865175422593
16260000  ekin = 5.80241158320214 |  erot = 5.64408188256625 | epot = -14.8938931847801 | etot = -3.44739971901173
16280000  ekin = 5.2799227335546 |  erot = 6.99412740255315 | epot = -15.8829951180933 | etot = -3.60894498198556
16300000  ekin = 6.11486048693112 |  erot = 5.5854050805479 | epot = -12.9073459997415 | etot = -1.20708043226245
16320000  ekin = 6.86901716415105 |  erot = 5.98824960735744 | epot = -14.2808762149357 | etot = -1.42360944342725
16340000  ekin = 6.32067834925426 |  erot = 5.30545933514959 | epot = -14.6353923044011 | etot = -3.00925461999729
16360000  ekin = 7.05926013164619 |  erot = 5.35991716475074 | epot = -16.1236099107324 | etot = -3.70443261433547
16380000  ekin = 7.59544154422706 |  erot = 6.9485252968706 | epot = -15.2062193886231 | etot = -0.662252547525398
16400000  ekin = 5.9940364625149 |  erot = 5.57898951593051 | epot = -15.1068671347996 | etot = -3.53384115635419
16420000  ekin = 6.35766397833783 |  erot = 6.33453458853308 | epot = -14.4775421018823 | etot = -1.78534353501137
16440000  ekin = 5.14855197366196 |  erot = 5.85887457762264 | epot = -15.288017339222 | etot = -4.28059078793736
16460000  ekin = 7.73045499353669 |  erot = 6.45978127815319 | epot = -14.8340313121037 | etot = -0.643795040413789
16480000  ekin = 7.21792392663234 |  erot = 6.71476880035269 | epot = -12.9294385457709 | etot = 1.00325418121414
16500000  ekin = 5.31249134294104 |  erot = 7.14868194777933 | epot = -14.8966431398042 | etot = -2.43546984908379
16520000  ekin = 7.99693102986124 |  erot = 5.95716674013133 | epot = -14.7129506814233 | etot = -0.758852911430765
16540000  ekin = 5.8676621817707 |  erot = 5.34883181253178 | epot = -13.1580991183782 | etot = -1.94160512407576
16560000  ekin = 5.05295535334709 |  erot = 5.54605374274925 | epot = -12.1507068901015 | etot = -1.55169779400518
16580000  ekin = 6.38093434382732 |  erot = 7.09293476326208 | epot = -12.3276567703395 | etot = 1.14621233674985
16600000  ekin = 4.42048945794368 |  erot = 5.15722884298448 | epot = -13.1471271270918 | etot = -3.56940882616361
16620000  ekin = 6.13987572601674 |  erot = 6.13794194521628 | epot = -13.4284888274671 | etot = -1.15067115623411
16640000  ekin = 5.69156036327614 |  erot = 6.63817160771683 | epot = -12.6251038242497 | etot = -0.295371853256741
16640000 0.0020290768 -0.0073767785 0.00062899453 -0.0037057955 -7.2603673e-05 
Loop time of 937.489 on 1 procs for 2200000 steps with 1871 atoms

Performance: 608263.393 tau/day, 2346.695 timesteps/s
99.9% CPU use with 1 MPI tasks x 1 OpenMP threads

MPI task timing breakdown:
Section |  min time  |  avg time  |  max time  |%varavg| %total
---------------------------------------------------------------
Pair    | 432.28     | 432.28     | 432.28     |   0.0 | 46.11
Bond    | 12.161     | 12.161     | 12.161     |   0.0 |  1.30
Neigh   | 2.5613     | 2.5613     | 2.5613     |   0.0 |  0.27
Comm    | 46.788     | 46.788     | 46.788     |   0.0 |  4.99
Output  | 0.039625   | 0.039625   | 0.039625   |   0.0 |  0.00
Modify  | 406.5      | 406.5      | 406.5      |   0.0 | 43.36
Other   |            | 37.15      |            |       |  3.96

Nlocal:    1871 ave 1871 max 1871 min
Histogram: 1 0 0 0 0 0 0 0 0 0
Nghost:    1056 ave 1056 max 1056 min
Histogram: 1 0 0 0 0 0 0 0 0 0
Neighs:    961 ave 961 max 961 min
Histogram: 1 0 0 0 0 0 0 0 0 0

Total # of neighbors = 961
Ave neighs/atom = 0.513629
Ave special neighs/atom = 0.12186
Neighbor list builds = 364
Dangerous builds = 0
