ITEM: TIMESTEP
11000000
ITEM: NUMBER OF ATOMS
40
ITEM: BOX BOUNDS pp pp pp
-1.0000000000000000e+01 1.0000000000000000e+01
-1.0000000000000000e+01 1.0000000000000000e+01
-1.5000000000000000e+02 1.5000000000000000e+02
ITEM: ATOMS id type xu yu zu 
1 5  4.747392e+00  1.071061e+00 -7.905273e+00 
2 5  5.081291e+00  5.524722e-01 -8.471389e+00 
3 5  4.888105e+00  6.189723e-01 -7.925567e+00 
4 5  5.248136e+00 -1.045775e-01 -8.017830e+00 
5 5  4.439652e+00 -7.031084e-01 -6.991256e+00 
6 5  4.777623e+00 -9.986288e-01 -7.045266e+00 
7 5  4.885319e+00 -1.449229e+00 -6.373358e+00 
8 5  5.791434e+00 -1.181059e+00 -5.450730e+00 
9 5  5.898266e+00 -1.428440e+00 -4.805046e+00 
10 5  4.877374e+00 -1.293720e+00 -4.980701e+00 
11 4  4.634164e+00 -8.958708e-01 -4.885223e+00 
12 4  4.236688e+00 -1.052211e+00 -4.522133e+00 
13 4  4.175853e+00 -9.544001e-01 -4.067596e+00 
14 4  3.899727e+00 -6.410325e-01 -3.762160e+00 
15 4  3.488878e+00 -3.939525e-01 -3.520803e+00 
16 4  3.180019e+00 -5.281735e-02 -3.603221e+00 
17 4  2.666638e+00  1.760383e-01 -3.750268e+00 
18 4  2.103711e+00  7.788962e-01 -3.686577e+00 
19 4  1.747691e+00  6.432971e-01 -3.446494e+00 
20 4  1.748857e+00  8.111982e-01 -2.911064e+00 
21 4  1.218714e+00  8.475491e-01 -2.603619e+00 
22 4  2.168530e+00  8.506542e-01 -1.596129e+00 
23 4  2.132983e+00  4.224887e-01 -1.598588e+00 
24 4  9.639660e-01  7.635280e-02 -1.849501e+00 
25 4  6.181583e-01 -5.449202e-02 -2.215541e+00 
26 4  1.126190e-01 -2.159917e-01 -1.924569e+00 
27 4  4.889142e-01 -1.519867e-01 -1.585739e+00 
28 4  5.939492e-01 -2.337000e-01 -1.110499e+00 
29 4  3.713590e-02 -1.305537e-01 -5.858566e-02 
30 4  1.229467e-02 -5.185866e-02  4.200746e-01 
31 5 -3.795499e-01  3.461055e-01  1.473615e+00 
32 5 -2.537818e-01  2.915361e-01  1.640615e+00 
33 5 -8.282189e-01 -2.122931e-01  1.637941e+00 
34 5 -1.066678e+00  9.407938e-02  2.070538e+00 
35 5 -5.654397e-01  8.922422e-01  2.487042e+00 
36 5 -8.613838e-01  8.473694e-01  3.078324e+00 
37 5 -5.890349e-01  1.704174e+00  2.578173e+00 
38 5  7.226046e-01  1.442128e+00  3.001305e+00 
39 5  1.018606e+00  1.310956e+00  2.026484e+00 
40 5  1.513075e+00  1.766102e+00  1.811119e+00 
ITEM: TIMESTEP
11040000
ITEM: NUMBER OF ATOMS
40
ITEM: BOX BOUNDS pp pp pp
-1.0000000000000000e+01 1.0000000000000000e+01
-1.0000000000000000e+01 1.0000000000000000e+01
-1.5000000000000000e+02 1.5000000000000000e+02
ITEM: ATOMS id type xu yu zu 
1 5  4.755392e+00  9.137558e-01 -8.433504e+00 
2 5  4.911010e+00  2.676239e-01 -8.521412e+00 
3 5  4.796877e+00  6.827441e-01 -8.246211e+00 
4 5  5.665068e+00 -2.548098e-01 -7.536984e+00 
5 5  4.364142e+00 -1.012626e+00 -7.450964e+00 
6 5  5.124892e+00 -1.104985e+00 -7.338719e+00 
7 5  5.782430e+00 -7.378625e-01 -7.085672e+00 
8 5  6.172362e+00 -6.727821e-01 -5.932833e+00 
9 5  6.236279e+00 -1.227661e+00 -5.365553e+00 
10 5  4.799548e+00 -1.627646e+00 -5.332263e+00 
11 4  4.799651e+00 -1.214059e+00 -4.777048e+00 
12 4  4.365794e+00 -1.205935e+00 -4.433338e+00 
13 4  4.063674e+00 -1.224293e+00 -4.022161e+00 
14 4  3.917473e+00 -9.640797e-01 -3.523255e+00 
15 4  3.686762e+00 -5.300978e-01 -3.321153e+00 
16 4  3.390638e+00 -1.259768e-01 -3.373130e+00 
17 4  2.933434e+00  1.424455e-01 -3.320875e+00 
18 4  2.672385e+00  1.187105e+00 -3.567134e+00 
19 4  2.208787e+00  1.125265e+00 -3.356607e+00 
20 4  1.354757e+00  6.418433e-01 -2.761206e+00 
21 4  1.528693e+00  9.322487e-01 -2.324271e+00 
22 4  2.149817e+00  5.834369e-01 -1.468036e+00 
23 4  2.116168e+00  6.223827e-02 -1.566072e+00 
24 4  8.646203e-01  1.867239e-01 -1.927722e+00 
25 4  6.052986e-01 -4.551191e-02 -2.266543e+00 
26 4 -9.267632e-02 -6.912677e-02 -1.863638e+00 
27 4  9.626908e-02  7.515824e-02 -1.420194e+00 
28 4  1.806882e-01  1.795355e-02 -9.773818e-01 
29 4 -2.613581e-01 -1.563751e-02 -6.583199e-03 
30 4 -2.034703e-01  1.095886e-01  4.414207e-01 
31 5 -5.136085e-01  3.811877e-01  1.536212e+00 
32 5  1.194243e-01  2.705109e-01  1.501673e+00 
33 5 -7.716926e-01 -7.614009e-01  1.281257e+00 
34 5 -1.153074e+00 -1.079351e-01  1.531788e+00 
35 5 -5.911680e-01  1.112622e+00  1.931553e+00 
36 5 -6.575779e-01  7.720022e-01  3.231379e+00 
37 5 -9.475858e-01  1.747373e+00  2.786102e+00 
38 5  4.495937e-01  1.226167e+00  3.184694e+00 
39 5  7.584935e-01  1.389372e+00  1.669618e+00 
40 5  1.142988e+00  1.817752e+00  1.642749e+00 
ITEM: TIMESTEP
11080000
ITEM: NUMBER OF ATOMS
40
ITEM: BOX BOUNDS pp pp pp
-1.0000000000000000e+01 1.0000000000000000e+01
-1.0000000000000000e+01 1.0000000000000000e+01
-1.5000000000000000e+02 1.5000000000000000e+02
ITEM: ATOMS id type xu yu zu 
1 5  4.978911e+00 -2.202440e-01 -8.642545e+00 
2 5  4.532951e+00 -3.215882e-01 -8.237846e+00 
3 5  4.875570e+00  3.432576e-01 -7.730229e+00 
4 5  5.577050e+00 -4.815931e-01 -7.218958e+00 
5 5  5.228348e+00 -1.505028e+00 -8.043579e+00 
6 5  5.040225e+00 -1.153758e+00 -7.585565e+00 
7 5  5.695884e+00 -1.169106e+00 -7.193031e+00 
8 5  6.033002e+00 -9.776806e-01 -5.776475e+00 
9 5  5.990025e+00 -1.754708e+00 -5.685349e+00 
10 5  4.882152e+00 -2.060254e+00 -5.358806e+00 
11 4  5.033514e+00 -1.125945e+00 -4.463165e+00 
12 4  4.557614e+00 -1.140659e+00 -4.271344e+00 
13 4  4.322412e+00 -1.123648e+00 -3.856367e+00 
14 4  3.945236e+00 -8.045094e-01 -3.591147e+00 
15 4  3.789015e+00 -3.660651e-01 -3.511322e+00 
16 4  3.325231e+00 -2.358722e-01 -3.371580e+00 
17 4  2.834685e+00 -2.589940e-01 -3.211379e+00 
18 4  2.862832e+00  7.952746e-01 -3.261203e+00 
19 4  2.338119e+00  8.562893e-01 -3.158770e+00 
20 4  1.507966e+00  1.270479e+00 -2.903280e+00 
21 4  1.511310e+00  1.175415e+00 -2.309106e+00 
22 4  2.339149e+00  2.135562e-01 -2.006439e+00 
23 4  2.203151e+00 -6.598785e-02 -1.600854e+00 
24 4  9.622347e-01 -1.831075e-01 -2.385891e+00 
25 4  6.400332e-01 -4.410526e-01 -2.582691e+00 
26 4  1.717998e-01 -3.983975e-01 -1.458711e+00 
27 4  1.370658e-01 -2.424249e-01 -1.001570e+00 
28 4  1.993680e-01 -2.897861e-01 -5.033069e-01 
29 4 -1.466565e-01  1.371445e-01  4.816828e-01 
30 4 -9.962123e-02 -1.528885e-01  8.412462e-01 
31 5 -7.054601e-01  5.670374e-01  1.391676e+00 
32 5 -6.853700e-01  7.499761e-02  1.725905e+00 
33 5 -7.838227e-01 -1.269824e+00  1.761847e+00 
34 5 -1.637404e+00 -5.633816e-01  1.773630e+00 
35 5 -1.281725e+00  9.054209e-01  2.046530e+00 
36 5 -1.116662e+00  9.084288e-01  2.869992e+00 
37 5 -3.765722e-01  1.642258e+00  2.648034e+00 
38 5  4.890786e-01  1.776687e+00  3.177340e+00 
39 5  9.882617e-01  1.842401e+00  1.724142e+00 
40 5  8.606787e-01  1.737365e+00  1.963154e+00 
ITEM: TIMESTEP
11120000
ITEM: NUMBER OF ATOMS
40
ITEM: BOX BOUNDS pp pp pp
-1.0000000000000000e+01 1.0000000000000000e+01
-1.0000000000000000e+01 1.0000000000000000e+01
-1.5000000000000000e+02 1.5000000000000000e+02
ITEM: ATOMS id type xu yu zu 
1 5  4.751179e+00 -3.317876e-01 -7.701623e+00 
2 5  4.707191e+00 -3.940669e-01 -7.590001e+00 
3 5  5.319998e+00  2.582137e-01 -7.320968e+00 
4 5  5.611897e+00 -8.439410e-02 -7.327945e+00 
5 5  5.602016e+00 -8.543674e-01 -8.057561e+00 
6 5  5.192203e+00 -1.340837e+00 -7.703504e+00 
7 5  4.984362e+00 -1.330849e+00 -7.169556e+00 
8 5  5.657603e+00 -1.507574e+00 -5.986628e+00 
9 5  5.160994e+00 -1.657190e+00 -5.826901e+00 
10 5  4.845609e+00 -1.971710e+00 -5.280822e+00 
11 4  4.570606e+00 -9.330753e-01 -4.556085e+00 
12 4  4.337405e+00 -1.190805e+00 -4.328545e+00 
13 4  4.105100e+00 -1.151699e+00 -3.958900e+00 
14 4  3.799929e+00 -9.844413e-01 -3.714740e+00 
15 4  3.616027e+00 -6.233195e-01 -3.846855e+00 
16 4  3.551171e+00 -4.123816e-01 -3.394727e+00 
17 4  3.224813e+00 -3.161662e-01 -3.097949e+00 
18 4  2.733995e+00  5.356651e-01 -2.931316e+00 
19 4  2.259360e+00  4.468960e-01 -2.787489e+00 
20 4  1.558277e+00  1.178833e+00 -2.769736e+00 
21 4  1.331514e+00  1.297283e+00 -2.323310e+00 
22 4  2.754230e+00  8.580556e-01 -1.622497e+00 
23 4  2.634660e+00  3.893788e-01 -1.517965e+00 
24 4  1.234629e+00  2.077868e-01 -2.087676e+00 
25 4  8.254548e-01 -1.236304e-01 -2.021907e+00 
26 4  4.407449e-01 -2.693823e-01 -1.489320e+00 
27 4  3.723058e-01  8.873013e-02 -1.161663e+00 
28 4  3.867949e-01  2.178307e-01 -6.356326e-01 
29 4 -1.122128e-01  8.816378e-02  2.045847e-01 
30 4  8.765968e-02 -1.928152e-01  6.010878e-01 
31 5 -6.123251e-01  2.970481e-01  1.034449e+00 
32 5 -2.509088e-01  2.098887e-01  1.614304e+00 
33 5 -5.622985e-01  1.045310e-01  1.898819e+00 
34 5 -1.669567e+00  6.241995e-02  1.682656e+00 
35 5 -1.107689e+00  3.283896e-01  1.966861e+00 
36 5 -4.362476e-01  6.355706e-01  2.784730e+00 
37 5  3.222552e-01  1.344384e+00  2.128621e+00 
38 5  5.364675e-01  1.428794e+00  2.195438e+00 
39 5  6.568667e-01  2.132858e+00  1.340678e+00 
40 5  7.070764e-01  2.563061e+00  1.714865e+00 
ITEM: TIMESTEP
11160000
ITEM: NUMBER OF ATOMS
40
ITEM: BOX BOUNDS pp pp pp
-1.0000000000000000e+01 1.0000000000000000e+01
-1.0000000000000000e+01 1.0000000000000000e+01
-1.5000000000000000e+02 1.5000000000000000e+02
ITEM: ATOMS id type xu yu zu 
1 5  4.425869e+00 -5.044589e-02 -7.456969e+00 
2 5  4.222184e+00 -4.336371e-01 -7.077778e+00 
3 5  4.777945e+00  8.464940e-02 -7.088752e+00 
4 5  5.314451e+00 -3.452455e-01 -7.241276e+00 
5 5  5.227140e+00 -1.113406e+00 -7.451116e+00 
6 5  5.533797e+00 -1.794612e+00 -7.727704e+00 
7 5  5.091176e+00 -1.665675e+00 -7.335982e+00 
8 5  5.859472e+00 -1.087097e+00 -6.542108e+00 
9 5  5.243374e+00 -1.950502e+00 -6.190324e+00 
10 5  5.194015e+00 -1.498603e+00 -5.741197e+00 
11 4  5.039384e+00 -9.813845e-01 -4.568171e+00 
12 4  4.655484e+00 -1.233481e+00 -4.437311e+00 
13 4  4.253743e+00 -1.158487e+00 -4.008701e+00 
14 4  3.895512e+00 -8.917625e-01 -3.719296e+00 
15 4  3.478961e+00 -6.329625e-01 -3.737609e+00 
16 4  3.222560e+00 -4.395548e-01 -3.355747e+00 
17 4  2.736259e+00 -4.719426e-01 -2.934680e+00 
18 4  2.537616e+00  6.865557e-01 -2.505774e+00 
19 4  2.035080e+00  6.891800e-01 -2.605978e+00 
20 4  1.510899e+00  1.586010e+00 -2.701767e+00 
21 4  1.498288e+00  1.706225e+00 -2.168597e+00 
22 4  2.824097e+00  1.054987e+00 -1.717696e+00 
23 4  2.705553e+00  5.057202e-01 -1.579417e+00 
24 4  1.530079e+00  2.660439e-01 -2.292668e+00 
25 4  1.040297e+00  1.099930e-01 -2.214297e+00 
26 4  2.308069e-01 -6.749616e-01 -1.529269e+00 
27 4  3.061580e-01 -2.854775e-01 -1.184126e+00 
28 4  2.816470e-01 -8.168035e-02 -6.845265e-01 
29 4 -3.638550e-02 -8.092098e-02 -1.693687e-01 
30 4 -1.064651e-01 -1.251345e-01  2.802015e-01 
31 5  1.342532e-02  5.093406e-01  1.215957e+00 
32 5 -3.826102e-01 -1.027449e-01  1.520821e+00 
33 5 -2.613519e-01 -3.733538e-01  1.657335e+00 
34 5 -1.494697e+00 -2.995604e-01  1.752425e+00 
35 5 -9.344851e-01  9.246966e-01  1.553473e+00 
36 5 -3.988164e-01  1.103754e+00  2.366806e+00 
37 5  3.296722e-01  1.536198e+00  1.681919e+00 
38 5  4.129188e-01  2.556675e+00  1.778556e+00 
39 5  9.000331e-01  2.449226e+00  1.394895e+00 
40 5  1.262010e+00  2.728919e+00  2.286192e+00 
ITEM: TIMESTEP
11200000
ITEM: NUMBER OF ATOMS
40
ITEM: BOX BOUNDS pp pp pp
-1.0000000000000000e+01 1.0000000000000000e+01
-1.0000000000000000e+01 1.0000000000000000e+01
-1.5000000000000000e+02 1.5000000000000000e+02
ITEM: ATOMS id type xu yu zu 
1 5  4.394859e+00  1.872770e-01 -7.314801e+00 
2 5  4.098064e+00 -3.968899e-01 -7.355007e+00 
3 5  4.554992e+00 -7.775224e-01 -7.102854e+00 
4 5  5.568313e+00 -1.741941e-01 -7.057021e+00 
5 5  5.796982e+00 -9.075163e-01 -7.423684e+00 
6 5  5.641115e+00 -1.780407e+00 -7.945569e+00 
7 5  5.457926e+00 -1.836899e+00 -7.582119e+00 
8 5  5.856513e+00 -1.748161e+00 -6.080799e+00 
9 5  5.094471e+00 -2.209551e+00 -6.590339e+00 
10 5  4.661644e+00 -1.434153e+00 -5.802149e+00 
11 4  5.021481e+00 -9.632035e-01 -4.489657e+00 
12 4  4.733893e+00 -1.109292e+00 -4.293561e+00 
13 4  4.309254e+00 -1.145132e+00 -4.006494e+00 
14 4  3.950668e+00 -1.135242e+00 -3.704585e+00 
15 4  3.765924e+00 -4.754318e-01 -3.562724e+00 
16 4  3.475766e+00 -4.356811e-01 -3.142869e+00 
17 4  3.101774e+00 -3.697369e-01 -2.858815e+00 
18 4  2.356762e+00  6.952249e-01 -2.786646e+00 
19 4  1.871399e+00  8.430799e-01 -2.737901e+00 
20 4  1.463779e+00  1.628782e+00 -2.337612e+00 
21 4  1.699986e+00  1.753001e+00 -1.940698e+00 
22 4  2.795782e+00  9.181985e-01 -1.850822e+00 
23 4  2.504506e+00  5.754949e-01 -1.677121e+00 
24 4  1.224941e+00 -7.946972e-02 -2.232347e+00 
25 4  9.215043e-01 -5.441528e-01 -2.389569e+00 
26 4  6.323475e-02 -4.136040e-01 -1.205845e+00 
27 4  7.867008e-02 -2.106845e-01 -7.177791e-01 
28 4  8.164919e-02 -6.462430e-02 -1.879367e-01 
29 4  1.509903e-01 -1.717800e-01  1.333291e-02 
30 4 -4.842608e-02 -1.263782e-01  5.722647e-01 
31 5 -6.722053e-02  4.534707e-01  1.055157e+00 
32 5 -3.467527e-01  2.707206e-01  1.319113e+00 
33 5 -3.856158e-01 -7.132328e-01  1.716637e+00 
34 5 -1.416136e+00 -3.483096e-02  1.567607e+00 
35 5 -1.467675e+00  4.943707e-01  2.440489e+00 
36 5 -3.528556e-01  7.996190e-01  2.769972e+00 
37 5  3.689732e-01  1.105154e+00  2.218417e+00 
38 5  2.365162e-01  2.192235e+00  1.309794e+00 
39 5  7.817940e-01  2.104157e+00  1.230295e+00 
40 5  1.118868e+00  2.521701e+00  2.123981e+00 
ITEM: TIMESTEP
11240000
ITEM: NUMBER OF ATOMS
40
ITEM: BOX BOUNDS pp pp pp
-1.0000000000000000e+01 1.0000000000000000e+01
-1.0000000000000000e+01 1.0000000000000000e+01
-1.5000000000000000e+02 1.5000000000000000e+02
ITEM: ATOMS id type xu yu zu 
1 5  3.898454e+00  3.526349e-01 -6.657198e+00 
2 5  4.397860e+00 -5.219547e-01 -7.414603e+00 
3 5  5.027014e+00 -9.044116e-01 -6.869072e+00 
4 5  5.736167e+00 -2.595794e-01 -7.522415e+00 
5 5  5.801781e+00 -8.331041e-01 -7.955209e+00 
6 5  5.518533e+00 -1.485378e+00 -7.491796e+00 
7 5  5.551027e+00 -2.311514e+00 -7.794502e+00 
8 5  5.530577e+00 -1.402644e+00 -6.472648e+00 
9 5  5.088800e+00 -1.453327e+00 -6.699621e+00 
10 5  5.017709e+00 -1.098958e+00 -6.131235e+00 
11 4  5.175871e+00 -5.140791e-01 -4.924931e+00 
12 4  4.980413e+00 -9.201880e-01 -4.593722e+00 
13 4  4.716657e+00 -1.054440e+00 -4.174945e+00 
14 4  4.422412e+00 -9.341477e-01 -3.825263e+00 
15 4  3.857070e+00 -3.980849e-01 -3.891342e+00 
16 4  3.510228e+00 -1.871482e-01 -3.698000e+00 
17 4  3.137061e+00 -2.491670e-01 -3.425643e+00 
18 4  2.810146e+00  8.323909e-01 -2.967035e+00 
19 4  2.234570e+00  8.052126e-01 -3.018417e+00 
20 4  1.468547e+00  1.370823e+00 -2.632503e+00 
21 4  1.573427e+00  1.643870e+00 -2.112730e+00 
22 4  2.439521e+00  1.100248e+00 -2.047914e+00 
23 4  2.536942e+00  7.474734e-01 -1.698442e+00 
24 4  1.362041e+00  3.233022e-01 -1.958544e+00 
25 4  1.051557e+00 -9.796368e-03 -2.163793e+00 
26 4  1.953753e-01 -7.423424e-01 -1.257153e+00 
27 4  2.195516e-01 -3.081549e-01 -1.222931e+00 
28 4  3.029424e-01  1.418540e-01 -9.506550e-01 
29 4 -2.860350e-01  9.912869e-02 -7.767544e-02 
30 4 -1.115927e-01  8.928379e-02  3.885260e-01 
31 5  1.931717e-01  1.116536e+00  1.537095e+00 
32 5 -3.396511e-01  5.351881e-01  1.988408e+00 
33 5 -8.313870e-01 -4.356582e-01  2.547826e+00 
34 5 -1.139829e+00  8.909339e-01  1.732383e+00 
35 5 -1.853738e+00  1.027835e+00  2.120918e+00 
36 5 -6.987128e-01  5.978722e-01  2.689815e+00 
37 5 -6.828919e-02  1.225770e+00  2.042500e+00 
38 5  1.441228e-01  1.892283e+00  1.339621e+00 
39 5  1.026806e+00  2.297658e+00  1.116911e+00 
40 5  5.147085e-01  2.664226e+00  1.848773e+00 
ITEM: TIMESTEP
11280000
ITEM: NUMBER OF ATOMS
40
ITEM: BOX BOUNDS pp pp pp
-1.0000000000000000e+01 1.0000000000000000e+01
-1.0000000000000000e+01 1.0000000000000000e+01
-1.5000000000000000e+02 1.5000000000000000e+02
ITEM: ATOMS id type xu yu zu 
1 5  3.708989e+00  4.106272e-01 -7.049103e+00 
2 5  4.208194e+00 -7.863973e-01 -6.942338e+00 
3 5  4.637644e+00 -1.009264e+00 -7.146830e+00 
4 5  5.098297e+00 -1.104865e-01 -7.899859e+00 
5 5  5.844811e+00 -8.114999e-01 -7.755451e+00 
6 5  5.458621e+00 -1.839500e+00 -7.634467e+00 
7 5  5.577408e+00 -1.931388e+00 -7.480162e+00 
8 5  5.467578e+00 -1.325124e+00 -6.602940e+00 
9 5  5.396497e+00 -1.125671e+00 -6.325157e+00 
10 5  5.204867e+00 -8.881844e-01 -6.210252e+00 
11 4  5.053825e+00 -2.161070e-01 -5.070072e+00 
12 4  4.785228e+00 -4.735203e-01 -4.802838e+00 
13 4  4.613769e+00 -6.420102e-01 -4.308742e+00 
14 4  4.425537e+00 -5.418139e-01 -3.878829e+00 
15 4  4.357916e+00  1.215422e-01 -3.854185e+00 
16 4  3.882954e+00  1.394738e-01 -3.729874e+00 
17 4  3.410189e+00  1.647099e-01 -3.799159e+00 
18 4  2.921597e+00  8.523544e-01 -3.014768e+00 
19 4  2.468918e+00  8.921981e-01 -3.203109e+00 
20 4  1.543113e+00  1.214007e+00 -2.810961e+00 
21 4  1.693260e+00  1.196355e+00 -2.414461e+00 
22 4  2.326838e+00  1.814058e+00 -2.060988e+00 
23 4  2.509185e+00  1.281475e+00 -2.078575e+00 
24 4  1.191663e+00  3.885555e-01 -2.016191e+00 
25 4  9.573659e-01  4.803260e-02 -2.226712e+00 
26 4  3.540299e-01 -3.256757e-01 -1.856255e+00 
27 4  1.839760e-01  2.120549e-02 -1.563772e+00 
28 4 -5.314353e-03  1.513650e-01 -1.202153e+00 
29 4  1.077395e-02 -1.517068e-01 -2.959832e-01 
30 4  2.036247e-01 -5.769653e-02  2.566866e-01 
31 5  1.033270e-01  6.604809e-01  1.075298e+00 
32 5 -1.918595e-01  4.082586e-01  1.844381e+00 
33 5 -1.044385e+00 -1.940103e-01  1.852957e+00 
34 5 -1.102486e+00  9.043067e-01  1.984952e+00 
35 5 -1.646947e+00  1.002004e+00  2.961932e+00 
36 5 -4.349330e-01  7.089064e-01  3.127487e+00 
37 5 -1.632443e-01  9.821747e-01  2.208891e+00 
38 5  2.680683e-01  1.616319e+00  1.315571e+00 
39 5  9.108359e-01  2.437609e+00  1.278115e+00 
40 5  7.666647e-01  2.478888e+00  1.805995e+00 
ITEM: TIMESTEP
11320000
ITEM: NUMBER OF ATOMS
40
ITEM: BOX BOUNDS pp pp pp
-1.0000000000000000e+01 1.0000000000000000e+01
-1.0000000000000000e+01 1.0000000000000000e+01
-1.5000000000000000e+02 1.5000000000000000e+02
ITEM: ATOMS id type xu yu zu 
1 5  3.375302e+00 -5.105418e-01 -7.651213e+00 
2 5  3.860264e+00 -7.166821e-02 -7.214875e+00 
3 5  4.240280e+00 -5.160170e-01 -7.420695e+00 
4 5  5.342867e+00 -2.322820e-01 -8.003890e+00 
5 5  5.224617e+00 -6.397124e-01 -8.058987e+00 
6 5  5.500050e+00 -1.597090e+00 -8.103766e+00 
7 5  5.300292e+00 -1.766121e+00 -7.254948e+00 
8 5  5.338471e+00 -1.369215e+00 -6.961090e+00 
9 5  5.769632e+00 -1.791073e+00 -6.231867e+00 
10 5  5.091967e+00 -9.456613e-01 -6.360177e+00 
11 4  4.674418e+00 -2.500424e-01 -5.217634e+00 
12 4  4.716144e+00 -5.199451e-01 -4.761834e+00 
13 4  4.601057e+00 -5.637889e-01 -4.213194e+00 
14 4  4.504850e+00 -4.108709e-01 -3.777734e+00 
15 4  4.287772e+00  1.269580e-01 -3.678839e+00 
16 4  3.832555e+00  3.756321e-03 -3.519450e+00 
17 4  3.391612e+00 -1.329440e-01 -3.620070e+00 
18 4  2.968910e+00  1.198147e+00 -3.325997e+00 
19 4  2.759204e+00  1.579926e+00 -3.667253e+00 
20 4  1.782468e+00  1.444770e+00 -2.886834e+00 
21 4  1.880303e+00  1.156706e+00 -2.531756e+00 
22 4  2.377209e+00  9.410591e-01 -2.365568e+00 
23 4  2.365711e+00  4.836284e-01 -2.166741e+00 
24 4  1.001273e+00  7.097937e-01 -2.596110e+00 
25 4  7.100458e-01  3.269832e-01 -2.787064e+00 
26 4  4.988738e-01 -8.222609e-02 -2.399238e+00 
27 4  3.644051e-01  1.685892e-01 -1.881416e+00 
28 4  3.771903e-01  1.973287e-01 -1.342072e+00 
29 4  4.263586e-01 -1.182217e-01 -4.413422e-01 
30 4  3.669398e-01  3.885909e-02 -1.461929e-02 
31 5  2.437778e-01  5.170114e-01  5.405377e-01 
32 5 -2.643103e-01  2.733055e-01  1.257411e+00 
33 5 -1.030824e+00 -2.008634e-01  1.954681e+00 
34 5 -5.951069e-01  6.334758e-01  2.456623e+00 
35 5 -1.135338e+00  1.186160e+00  2.331918e+00 
36 5 -3.628446e-01  7.394986e-01  2.953524e+00 
37 5 -8.081367e-02  1.172379e+00  2.291576e+00 
38 5  5.272703e-01  1.793005e+00  1.776548e+00 
39 5  1.075749e+00  2.336418e+00  1.647971e+00 
40 5  1.309613e+00  2.283589e+00  1.801175e+00 
ITEM: TIMESTEP
11360000
ITEM: NUMBER OF ATOMS
40
ITEM: BOX BOUNDS pp pp pp
-1.0000000000000000e+01 1.0000000000000000e+01
-1.0000000000000000e+01 1.0000000000000000e+01
-1.5000000000000000e+02 1.5000000000000000e+02
ITEM: ATOMS id type xu yu zu 
1 5  3.434863e+00 -1.348786e+00 -7.240435e+00 
2 5  4.076704e+00 -4.612820e-01 -7.987255e+00 
3 5  4.309632e+00 -9.099163e-01 -7.531619e+00 
4 5  5.592827e+00 -3.374400e-01 -7.950969e+00 
5 5  5.565592e+00 -6.838691e-01 -8.028956e+00 
6 5  5.663476e+00 -1.437957e+00 -8.151147e+00 
7 5  5.458929e+00 -1.736229e+00 -7.490141e+00 
8 5  5.448346e+00 -1.002011e+00 -7.396527e+00 
9 5  5.276433e+00 -1.227034e+00 -6.581367e+00 
10 5  4.822182e+00 -2.916981e-01 -6.465306e+00 
11 4  5.151698e+00  3.167985e-01 -4.937396e+00 
12 4  4.986059e+00 -1.079832e-01 -4.714423e+00 
13 4  4.647869e+00 -3.896369e-01 -4.412550e+00 
14 4  4.375831e+00 -4.198174e-01 -3.964110e+00 
15 4  4.040299e+00 -2.724881e-01 -3.753715e+00 
16 4  3.595264e+00 -1.349001e-01 -3.600788e+00 
17 4  3.045582e+00 -1.150177e-01 -3.505388e+00 
18 4  2.830749e+00  9.705980e-01 -3.734085e+00 
19 4  2.550542e+00  1.300769e+00 -3.777153e+00 
20 4  1.356825e+00  1.331609e+00 -2.841369e+00 
21 4  1.681889e+00  1.148392e+00 -2.501878e+00 
22 4  2.605658e+00  1.230735e+00 -2.232053e+00 
23 4  2.463870e+00  7.871022e-01 -2.212538e+00 
24 4  1.118041e+00  5.091109e-01 -2.609942e+00 
25 4  7.007071e-01  5.248916e-01 -2.777505e+00 
26 4  4.465204e-01 -1.717541e-01 -2.378838e+00 
27 4  2.618201e-01 -8.106085e-03 -1.878705e+00 
28 4  2.883968e-01  9.751600e-02 -1.377090e+00 
29 4  3.049623e-01 -2.840983e-01 -3.048743e-01 
30 4  4.620304e-01 -1.088603e-01  1.544992e-01 
31 5 -1.141106e-01  4.339249e-01  7.530919e-01 
32 5 -2.126171e-01 -1.165432e-01  1.138557e+00 
33 5 -8.916370e-01 -4.905817e-01  1.690574e+00 
34 5 -1.060629e+00  9.591236e-02  2.322937e+00 
35 5 -1.011761e+00  8.606626e-01  2.804270e+00 
36 5 -2.890005e-01  1.050196e+00  2.275296e+00 
37 5  4.487586e-01  1.164964e+00  1.897410e+00 
38 5  5.370946e-01  1.805612e+00  1.508184e+00 
39 5  1.180836e+00  1.941202e+00  1.915545e+00 
40 5  1.499998e+00  1.860164e+00  1.712374e+00 
ITEM: TIMESTEP
11400000
ITEM: NUMBER OF ATOMS
40
ITEM: BOX BOUNDS pp pp pp
-1.0000000000000000e+01 1.0000000000000000e+01
-1.0000000000000000e+01 1.0000000000000000e+01
-1.5000000000000000e+02 1.5000000000000000e+02
ITEM: ATOMS id type xu yu zu 
1 5  4.231322e+00 -1.269028e+00 -7.765062e+00 
2 5  4.412042e+00  4.013587e-02 -8.166082e+00 
3 5  4.697058e+00 -2.297068e-01 -7.579096e+00 
4 5  5.444121e+00 -1.386062e-01 -8.001165e+00 
5 5  5.546576e+00 -4.725107e-01 -7.561120e+00 
6 5  5.460993e+00 -1.329492e+00 -8.133504e+00 
7 5  5.411974e+00 -1.619769e+00 -7.559191e+00 
8 5  4.617345e+00 -1.544897e+00 -7.128826e+00 
9 5  5.284874e+00 -8.814531e-01 -6.649096e+00 
10 5  4.646437e+00 -3.391240e-01 -6.382192e+00 
11 4  5.138786e+00  2.166659e-01 -5.101740e+00 
12 4  4.754830e+00  1.186128e-01 -4.732062e+00 
13 4  4.566022e+00 -2.015210e-01 -4.444582e+00 
14 4  4.397139e+00 -5.174916e-01 -4.140818e+00 
15 4  4.034557e+00 -6.071070e-01 -3.872266e+00 
16 4  3.543966e+00 -6.425958e-01 -3.785780e+00 
17 4  3.070263e+00 -5.933770e-01 -3.830784e+00 
18 4  2.923337e+00  8.570974e-01 -3.714543e+00 
19 4  2.427386e+00  1.043175e+00 -3.983335e+00 
20 4  1.504090e+00  1.236441e+00 -2.965236e+00 
21 4  1.731797e+00  9.571876e-01 -2.640339e+00 
22 4  2.754370e+00  4.701446e-01 -2.236031e+00 
23 4  2.444441e+00  1.664256e-01 -2.070126e+00 
24 4  1.467767e+00 -4.515746e-02 -2.467238e+00 
25 4  1.015534e+00 -2.387793e-01 -2.673480e+00 
26 4  1.048159e+00  1.248944e-02 -2.159519e+00 
27 4  6.142047e-01  1.257447e-01 -1.979069e+00 
28 4  4.708246e-01  4.660149e-01 -1.662434e+00 
29 4  3.182918e-01 -2.895054e-01 -3.510469e-01 
30 4  3.192601e-01  5.406437e-02  3.576398e-02 
31 5 -8.585632e-02  9.800943e-02  5.185517e-01 
32 5 -3.782578e-01  5.910079e-02  1.055280e+00 
33 5 -1.006324e+00 -1.202191e-01  1.668177e+00 
34 5 -9.418331e-01 -1.632714e-01  2.646434e+00 
35 5 -1.172625e+00  4.040328e-01  2.396553e+00 
36 5 -5.118091e-01  8.840500e-01  2.269375e+00 
37 5  5.060099e-01  1.323698e+00  1.949466e+00 
38 5  8.873156e-01  1.560929e+00  2.150192e+00 
39 5  1.088637e+00  1.791273e+00  2.289117e+00 
40 5  1.134922e+00  1.582945e+00  1.510126e+00 
ITEM: TIMESTEP
11440000
ITEM: NUMBER OF ATOMS
40
ITEM: BOX BOUNDS pp pp pp
-1.0000000000000000e+01 1.0000000000000000e+01
-1.0000000000000000e+01 1.0000000000000000e+01
-1.5000000000000000e+02 1.5000000000000000e+02
ITEM: ATOMS id type xu yu zu 
1 5  3.994498e+00 -3.852355e-01 -8.107464e+00 
2 5  4.852484e+00 -1.183029e-01 -7.924828e+00 
3 5  5.086986e+00 -5.684731e-02 -7.948800e+00 
4 5  5.218743e+00 -4.182583e-01 -8.149524e+00 
5 5  5.897438e+00 -6.461696e-01 -7.849778e+00 
6 5  5.351975e+00 -1.349207e+00 -7.428166e+00 
7 5  5.135300e+00 -1.544449e+00 -7.882522e+00 
8 5  4.696412e+00 -1.911108e+00 -7.059147e+00 
9 5  4.965083e+00 -1.347145e+00 -6.312866e+00 
10 5  4.544225e+00 -4.495789e-01 -5.522175e+00 
11 4  4.978502e+00  1.185783e-01 -4.842277e+00 
12 4  4.834983e+00 -2.861318e-01 -4.602627e+00 
13 4  4.796538e+00 -5.332628e-01 -4.310250e+00 
14 4  4.381196e+00 -7.212409e-01 -4.076745e+00 
15 4  3.930162e+00 -7.048537e-01 -3.816028e+00 
16 4  3.416107e+00 -5.869679e-01 -3.826726e+00 
17 4  2.959074e+00 -5.430997e-01 -3.985036e+00 
18 4  2.729687e+00  8.526550e-01 -3.852343e+00 
19 4  2.633445e+00  9.077808e-01 -4.203470e+00 
20 4  1.770422e+00  1.065930e+00 -3.209743e+00 
21 4  1.695991e+00  6.248676e-01 -3.007367e+00 
22 4  2.472857e+00 -7.818216e-02 -2.301756e+00 
23 4  2.158519e+00 -4.092401e-02 -1.963452e+00 
24 4  1.172824e+00 -4.811306e-01 -2.452601e+00 
25 4  6.957112e-01 -4.045479e-01 -2.517176e+00 
26 4  6.743829e-01 -8.581079e-02 -2.079133e+00 
27 4  2.191610e-01  5.137110e-02 -1.852302e+00 
28 4  4.936236e-02  1.812399e-01 -1.402094e+00 
29 4  1.476174e-01 -2.555359e-01 -3.655287e-01 
30 4  3.111294e-02 -1.466226e-01  1.400083e-01 
31 5 -2.414318e-01  7.020120e-01  6.072006e-01 
32 5 -3.621423e-01 -5.043194e-01  8.377714e-01 
33 5 -4.926399e-01 -3.838339e-01  1.515201e+00 
34 5 -1.717281e+00  1.854136e-01  2.390031e+00 
35 5 -9.823057e-01  5.007204e-01  1.835088e+00 
36 5 -7.331760e-01  8.975832e-01  2.217577e+00 
37 5 -1.421231e-02  1.672813e+00  2.390868e+00 
38 5  4.649182e-01  1.228042e+00  2.108881e+00 
39 5  7.448334e-01  1.364752e+00  3.213513e+00 
40 5  1.046536e+00  1.554009e+00  2.158180e+00 
ITEM: TIMESTEP
11480000
ITEM: NUMBER OF ATOMS
40
ITEM: BOX BOUNDS pp pp pp
-1.0000000000000000e+01 1.0000000000000000e+01
-1.0000000000000000e+01 1.0000000000000000e+01
-1.5000000000000000e+02 1.5000000000000000e+02
ITEM: ATOMS id type xu yu zu 
1 5  4.449169e+00 -4.337733e-01 -8.744193e+00 
2 5  4.425505e+00 -3.530235e-01 -8.137929e+00 
3 5  5.037822e+00 -4.617414e-01 -8.014564e+00 
4 5  5.328518e+00 -1.043494e+00 -8.870911e+00 
5 5  5.864258e+00 -7.089620e-01 -8.180608e+00 
6 5  5.334593e+00 -1.170429e+00 -7.729073e+00 
7 5  4.781497e+00 -1.341681e+00 -8.002375e+00 
8 5  4.652300e+00 -1.489687e+00 -7.300179e+00 
9 5  4.897917e+00 -9.533201e-01 -6.829409e+00 
10 5  4.457902e+00 -3.099308e-01 -5.692221e+00 
11 4  5.094903e+00  9.501034e-02 -4.765767e+00 
12 4  5.167624e+00 -1.870408e-01 -4.527317e+00 
13 4  4.836021e+00 -4.649800e-01 -4.212566e+00 
14 4  4.647127e+00 -4.976330e-01 -3.693537e+00 
15 4  4.132170e+00 -5.739141e-01 -3.494984e+00 
16 4  3.590408e+00 -4.962933e-01 -3.514035e+00 
17 4  3.084129e+00 -4.275575e-01 -3.771748e+00 
18 4  3.401934e+00  1.060177e+00 -3.590709e+00 
19 4  3.019078e+00  9.012273e-01 -4.058896e+00 
20 4  2.030772e+00  1.256135e+00 -3.294534e+00 
21 4  1.746945e+00  8.411803e-01 -3.369757e+00 
22 4  1.987980e+00 -5.829145e-02 -2.485317e+00 
23 4  1.863756e+00  7.104812e-03 -2.043733e+00 
24 4  1.302884e+00 -5.114366e-01 -2.440865e+00 
25 4  8.741074e-01 -7.619421e-01 -2.524595e+00 
26 4  6.880178e-01 -2.880163e-01 -1.997931e+00 
27 4  4.647977e-01  1.452858e-01 -1.841296e+00 
28 4  3.796690e-01  4.684609e-01 -1.474656e+00 
29 4  1.672887e-01 -2.224139e-01 -5.743363e-01 
30 4  1.893172e-01 -3.993483e-02 -2.914533e-02 
31 5 -2.934149e-01  5.394366e-01  5.089392e-01 
32 5 -3.181484e-01 -4.875022e-01  3.721287e-01 
33 5  8.088838e-02 -7.193494e-01  1.213266e+00 
34 5 -8.726466e-01  2.308843e-01  2.241832e+00 
35 5 -5.955211e-01  3.876380e-01  1.251903e+00 
36 5 -1.068048e+00  1.030722e+00  1.970125e+00 
37 5 -2.403295e-02  5.893027e-01  2.056665e+00 
38 5  7.592788e-01  1.180791e+00  2.315986e+00 
39 5  5.709964e-01  1.897213e+00  3.081148e+00 
40 5  1.130857e+00  9.243011e-01  2.264563e+00 
ITEM: TIMESTEP
11520000
ITEM: NUMBER OF ATOMS
40
ITEM: BOX BOUNDS pp pp pp
-1.0000000000000000e+01 1.0000000000000000e+01
-1.0000000000000000e+01 1.0000000000000000e+01
-1.5000000000000000e+02 1.5000000000000000e+02
ITEM: ATOMS id type xu yu zu 
1 5  5.067203e+00 -6.118644e-01 -8.732247e+00 
2 5  5.194977e+00 -3.364603e-01 -8.199528e+00 
3 5  5.175063e+00 -8.436522e-01 -8.639884e+00 
4 5  5.662915e+00 -1.618813e+00 -8.403967e+00 
5 5  6.049580e+00 -6.067330e-01 -7.999069e+00 
6 5  5.276226e+00 -1.309102e+00 -8.283022e+00 
7 5  4.851181e+00 -1.414418e+00 -7.812832e+00 
8 5  4.728126e+00 -1.507117e+00 -7.075036e+00 
9 5  4.913787e+00 -1.121017e+00 -6.577825e+00 
10 5  4.302325e+00 -6.845791e-01 -5.377120e+00 
11 4  5.188702e+00 -1.789602e-01 -5.090814e+00 
12 4  4.901406e+00 -5.259353e-01 -4.791252e+00 
13 4  4.760316e+00 -7.155496e-01 -4.294082e+00 
14 4  4.661518e+00 -6.424911e-01 -3.874219e+00 
15 4  4.314520e+00 -5.089944e-01 -3.464794e+00 
16 4  3.860391e+00 -2.592961e-01 -3.275908e+00 
17 4  3.419155e+00 -3.559523e-01 -3.153797e+00 
18 4  3.100754e+00  7.924730e-01 -3.874273e+00 
19 4  3.082847e+00  7.061060e-01 -4.375625e+00 
20 4  1.878262e+00  8.029697e-01 -3.808546e+00 
21 4  1.607135e+00  4.984345e-01 -3.617285e+00 
22 4  2.218941e+00 -4.991044e-01 -2.592094e+00 
23 4  1.937952e+00 -1.799349e-01 -2.300090e+00 
24 4  9.871162e-01 -5.263927e-01 -2.796269e+00 
25 4  7.179469e-01 -8.146492e-01 -3.143403e+00 
26 4  6.087840e-01 -3.031802e-01 -1.936927e+00 
27 4  3.110913e-01  7.157848e-02 -1.668031e+00 
28 4  2.231950e-01  4.575997e-01 -1.253166e+00 
29 4  1.229554e-01  6.862173e-02 -4.157697e-01 
30 4  4.379027e-01 -1.184301e-03 -2.540837e-02 
31 5 -8.125366e-01  2.058543e-01  5.007007e-01 
32 5 -7.861043e-01 -3.133204e-01  8.919703e-01 
33 5 -3.586328e-01 -7.983267e-01  1.475875e+00 
34 5 -2.995839e-01  5.610207e-01  2.055549e+00 
35 5 -2.743242e-01  5.394053e-01  1.496356e+00 