ITEM: TIMESTEP
11000000
ITEM: NUMBER OF ATOMS
40
ITEM: BOX BOUNDS pp pp pp
-1.0000000000000000e+01 1.0000000000000000e+01
-1.0000000000000000e+01 1.0000000000000000e+01
-1.5000000000000000e+02 1.5000000000000000e+02
ITEM: ATOMS id c_quat[1] c_quat[2] c_quat[3] c_quat[4] 
1  3.885814e-01 -3.700896e-02 -5.118162e-01  7.652967e-01 
2 -2.660218e-01 -4.492325e-01  7.571948e-04 -8.528904e-01 
3  8.193699e-02 -6.590963e-01 -7.342570e-01  1.405169e-01 
4  4.687544e-01  8.787694e-01  8.936132e-02  6.940090e-03 
5 -1.467996e-01 -2.763729e-01  2.985593e-01 -9.016265e-01 
6 -4.046235e-02 -3.222242e-01  4.087024e-01  8.529342e-01 
7  1.012127e-01  6.916376e-01  6.754537e-01  2.348528e-01 
8  5.753882e-02  7.187553e-01 -7.289822e-02  6.890326e-01 
9  7.827665e-01  6.996944e-02 -6.183292e-01  7.058780e-03 
10  3.626614e-01 -3.202399e-01  8.031661e-01 -3.476311e-01 
11 -2.638841e-01 -8.105797e-01  1.091916e-01 -5.112758e-01 
12  3.247935e-01  8.247346e-01  3.584629e-01  2.929614e-01 
13 -4.149797e-01 -6.235088e-01 -6.500669e-01 -1.282249e-01 
14  5.584276e-01  4.266395e-01  7.094002e-01  5.374640e-02 
15 -6.182124e-01 -9.387877e-03 -7.793685e-01  1.015383e-01 
16 -4.760731e-01  3.172061e-01 -7.749989e-01  2.685357e-01 
17  3.206531e-01 -6.671506e-01  4.765073e-01 -4.743758e-01 
18  1.198341e-01  7.898892e-01 -2.925346e-01  5.254886e-01 
19  1.893915e-01  8.178471e-01  2.351465e-01  4.898603e-01 
20  6.940898e-02 -4.331578e-01 -1.237088e-01  8.900859e-01 
21  1.364467e-01  5.644775e-01  2.512874e-02 -8.137051e-01 
22  4.003848e-01 -8.482962e-01  2.785899e-01  2.060901e-01 
23 -3.982600e-01  8.814087e-01  2.047851e-01  1.502357e-01 
24 -1.653033e-01 -6.337804e-01 -7.226064e-01  2.209915e-01 
25  2.358176e-01  8.899414e-01  3.740611e-01 -1.116810e-01 
26 -5.030198e-01  3.291602e-02  8.407441e-01  1.975776e-01 
27 -3.125737e-01 -2.592106e-01  8.271610e-01  3.884743e-01 
28 -2.206259e-02 -7.078106e-01  5.670092e-01  4.207349e-01 
29 -4.556635e-03  2.523442e-01  9.173947e-01  3.077153e-01 
30  1.380263e-01 -1.744090e-01  9.602356e-01  1.687535e-01 
31  1.608003e-01  1.634294e-01  8.758500e-01 -4.246420e-01 
32 -1.392307e-02 -7.855950e-01 -4.467044e-01  4.279039e-01 
33  5.345793e-02  4.728178e-01 -2.548945e-01 -8.417924e-01 
34 -8.825437e-02  1.315675e-01  9.823563e-01  9.938416e-02 
35 -4.126945e-02 -1.844703e-01  1.411665e-01  9.717714e-01 
36  6.115933e-01 -4.485939e-01  2.050127e-01 -6.186170e-01 
37 -5.020620e-01 -3.574880e-01 -7.736593e-01 -1.469266e-01 
38 -2.253680e-01 -7.373240e-01  5.938791e-01 -2.299351e-01 
39 -8.073491e-01 -5.306214e-01 -1.360937e-01  2.193327e-01 
40  7.916809e-01 -5.181107e-01  2.261430e-01  2.316505e-01 
ITEM: TIMESTEP
11040000
ITEM: NUMBER OF ATOMS
40
ITEM: BOX BOUNDS pp pp pp
-1.0000000000000000e+01 1.0000000000000000e+01
-1.0000000000000000e+01 1.0000000000000000e+01
-1.5000000000000000e+02 1.5000000000000000e+02
ITEM: ATOMS id c_quat[1] c_quat[2] c_quat[3] c_quat[4] 
1  3.535991e-01 -3.892861e-01 -6.645592e-01  5.308344e-01 
2  1.097439e-01 -7.611896e-01 -1.227741e-01 -6.272744e-01 
3 -3.461761e-02 -8.862121e-01 -4.554427e-01  7.747061e-02 
4  4.063167e-01  7.583568e-01 -3.931305e-01  3.244228e-01 
5  6.315107e-01  1.314319e-01  3.355160e-01 -6.865486e-01 
6 -1.653129e-01 -6.751313e-01  3.082793e-01  6.494869e-01 
7  5.802844e-01  7.093586e-01  3.874822e-01  9.968978e-02 
8 -1.019628e-01  7.416622e-01  2.032407e-01  6.310578e-01 
9  6.772327e-01  2.326908e-01 -3.576709e-01  5.994017e-01 
10  5.252904e-01 -9.428377e-03  4.025489e-01 -7.496236e-01 
11 -1.481656e-01 -7.887917e-01  2.078624e-01 -5.591493e-01 
12  3.264425e-01  8.282653e-01  1.174707e-01  4.400142e-01 
13 -4.121770e-01 -6.552727e-01 -6.051267e-01 -1.858750e-01 
14  4.613816e-01  3.563065e-01  8.125067e-01  2.371081e-03 
15 -4.108963e-01  8.207799e-02 -8.680971e-01  2.661480e-01 
16 -2.363671e-01  3.751187e-01 -7.311258e-01  5.185284e-01 
17  1.684741e-01 -5.802749e-01  6.313359e-01 -4.861198e-01 
18  7.912853e-02  7.550871e-01 -3.510348e-01  5.480481e-01 
19  3.229820e-01  8.187384e-01 -9.360824e-03  4.746182e-01 
20 -2.640377e-01  1.575976e-01  2.003239e-01  9.302244e-01 
21  2.333245e-01 -3.878345e-02 -2.003268e-01 -9.507495e-01 
22  5.466218e-01 -8.052892e-01  1.938946e-01  1.229581e-01 
23 -5.112636e-01  8.175032e-01  2.332403e-01  1.260836e-01 
24 -2.064765e-01 -6.471970e-01 -6.373028e-01  3.637975e-01 
25  2.915561e-01  8.824348e-01  3.382904e-01 -1.478631e-01 
26 -3.272043e-01  2.081194e-02  9.428626e-01  5.928198e-02 
27 -2.575391e-01 -4.493042e-01  8.218853e-01  2.372846e-01 
28 -1.689549e-01 -7.596565e-01  5.241413e-01  3.459077e-01 
29 -1.196880e-01  1.145658e-01  9.528301e-01  2.542917e-01 
30 -6.554241e-02 -2.110981e-01  9.062599e-01  3.603260e-01 
31  2.979395e-01  8.274701e-02  6.549589e-01 -6.895026e-01 
32  1.458146e-01 -8.224686e-01 -5.388982e-01  1.089600e-01 
33  4.732584e-01  2.380062e-01 -1.716319e-01 -8.306155e-01 
34 -6.277055e-02  2.065147e-01  9.644980e-01  1.521682e-01 
35  4.498308e-01 -2.434371e-01  8.911687e-02  8.546630e-01 
36  3.796149e-01 -5.662028e-01 -2.265831e-02 -7.312958e-01 
37  6.288114e-02 -6.309626e-01 -7.433967e-01 -2.128229e-01 
38 -1.963781e-02 -7.519174e-01  4.831502e-01 -4.481076e-01 
39 -7.829456e-01 -5.369043e-01 -2.209573e-01 -2.234004e-01 
40  6.483788e-01 -6.777743e-01  3.051855e-01  1.645865e-01 
ITEM: TIMESTEP
11080000
ITEM: NUMBER OF ATOMS
40
ITEM: BOX BOUNDS pp pp pp
-1.0000000000000000e+01 1.0000000000000000e+01
-1.0000000000000000e+01 1.0000000000000000e+01
-1.5000000000000000e+02 1.5000000000000000e+02
ITEM: ATOMS id c_quat[1] c_quat[2] c_quat[3] c_quat[4] 
1  2.841914e-01 -2.220591e-01 -4.508740e-01  8.164788e-01 
2  4.491200e-01 -1.071883e-01  2.736198e-01 -8.437618e-01 
3 -8.656649e-02 -9.015571e-01 -4.184557e-01  6.779338e-02 
4  3.399225e-01  5.144488e-01 -3.945201e-01  6.812848e-01 
5  4.892786e-01  1.855419e-01 -2.127381e-01 -8.251807e-01 
6 -1.494987e-01 -3.889131e-01  3.794652e-01  8.260768e-01 
7  5.936168e-01  8.175233e-02  7.972447e-01  7.305176e-02 
8 -2.778824e-01  9.203394e-01 -1.950825e-01  1.941639e-01 
9  2.398420e-01  7.839614e-01 -3.604744e-01  4.449028e-01 
10  4.770748e-01  2.931101e-01  5.600299e-01 -6.106165e-01 
11 -1.644920e-01 -7.754320e-01 -2.966702e-02 -6.089068e-01 
12  3.244812e-01  8.174473e-01  2.001032e-01  4.317993e-01 
13 -4.849149e-01 -5.884195e-01 -6.199683e-01 -1.850928e-01 
14  5.527931e-01  2.160309e-01  8.048277e-01 -1.690945e-03 
15 -2.983710e-01  2.220066e-01 -8.901845e-01  2.631717e-01 
16 -2.844849e-01  5.362557e-01 -7.292126e-01  3.158279e-01 
17  2.377274e-01 -7.716656e-01  4.772763e-01 -3.467351e-01 
18  8.594761e-02  6.775386e-01 -4.149815e-01  6.011197e-01 
19  3.386972e-01  7.572137e-01 -4.310463e-02  5.568246e-01 
20 -2.725976e-01  1.006768e-01 -8.563516e-02  9.530065e-01 
21  2.902350e-01  1.228644e-01  4.599184e-02 -9.479202e-01 
22  2.563058e-02 -8.929481e-01  4.464496e-01 -5.166742e-02 
23  2.307600e-02  9.992988e-01 -2.947914e-02 -6.774460e-04 
24 -4.034270e-01 -5.482888e-01 -5.670884e-01  4.637206e-01 
25  6.439068e-01  6.786479e-01  2.280252e-01 -2.698621e-01 
26 -2.103845e-01 -1.712727e-01  9.587470e-01  8.490176e-02 
27 -1.703462e-01 -5.678045e-01  7.954063e-01  1.261313e-01 
28 -2.088359e-02 -6.024393e-01  7.514465e-01  2.682514e-01 
29 -1.721509e-01  2.921625e-01  7.637844e-01  5.492163e-01 
30 -2.253604e-02 -7.599274e-02  7.983195e-01  5.969952e-01 
31  3.156211e-01  5.196268e-01  5.636348e-01 -5.591844e-01 
32  2.807730e-01 -5.482586e-01 -5.982816e-01  5.124823e-01 
33  7.192216e-01  3.047988e-01 -3.471280e-01 -5.189606e-01 
34  4.035051e-01  2.049902e-01  8.905888e-01  4.487982e-02 
35  2.944945e-01 -3.355926e-01 -2.423044e-01  8.613589e-01 
36  5.113650e-01 -5.255313e-01 -7.956236e-02 -6.752722e-01 
37 -2.278723e-01  5.845589e-03 -1.672584e-01 -9.592000e-01 
38  3.462610e-01 -7.970805e-01  9.907024e-02 -4.847176e-01 
39 -7.420236e-01 -4.981830e-01 -4.274290e-01  1.360854e-01 
40  1.472593e-01 -8.970970e-01  4.150808e-01  3.520759e-02 
ITEM: TIMESTEP
11120000
ITEM: NUMBER OF ATOMS
40
ITEM: BOX BOUNDS pp pp pp
-1.0000000000000000e+01 1.0000000000000000e+01
-1.0000000000000000e+01 1.0000000000000000e+01
-1.5000000000000000e+02 1.5000000000000000e+02
ITEM: ATOMS id c_quat[1] c_quat[2] c_quat[3] c_quat[4] 
1  4.201486e-01 -5.946351e-01 -3.938209e-01  5.610608e-01 
2  2.090914e-01  4.059083e-01 -7.560907e-02 -8.864550e-01 
3 -4.131607e-01 -2.187110e-01 -5.760235e-01 -6.705674e-01 
4 -9.696651e-02  2.605637e-01  1.918032e-02  9.603833e-01 
5  2.440896e-01  1.981764e-01 -1.034322e-01 -9.436356e-01 
6 -2.528240e-01 -2.789550e-01  3.044244e-01  8.749800e-01 
7  4.899442e-01  4.959579e-01  6.112341e-01  3.746643e-01 
8 -1.058799e-01  9.874540e-01  5.100966e-02 -1.054612e-01 
9  1.842766e-01  9.024486e-01 -3.524327e-01 -1.655894e-01 
10  6.630566e-01  2.658408e-01  6.986447e-01 -3.975213e-02 
11  2.499878e-02 -8.778860e-01 -1.849052e-02 -4.778590e-01 
12  3.035425e-01  6.867963e-01  4.246254e-01  5.058320e-01 
13 -5.445401e-01 -2.989967e-01 -7.401618e-01 -2.573665e-01 
14  5.532057e-01 -9.406223e-02  8.277154e-01 -1.725851e-03 
15  3.040562e-02  1.916465e-01 -9.675488e-01  1.618532e-01 
16  2.883500e-04  4.763810e-01 -8.768767e-01  6.440713e-02 
17 -3.451089e-02 -8.573260e-01  4.885061e-01 -1.586279e-01 
18 -3.937937e-02  7.582559e-01 -4.090654e-01  5.061252e-01 
19  2.590539e-01  8.587067e-01 -1.145196e-02  4.420211e-01 
20 -8.110628e-04 -1.568771e-01 -1.797480e-01  9.711229e-01 
21  3.269643e-01  2.492730e-01  1.077061e-01 -9.051832e-01 
22  4.056213e-01 -8.296515e-01  3.785750e-01  6.189237e-02 
23 -3.413143e-01  9.355458e-01 -1.373863e-02  8.983208e-02 
24 -2.253873e-01 -4.490759e-01 -4.696152e-01  7.259428e-01 
25  1.805400e-01  5.929549e-01  3.295858e-01 -7.121678e-01 
26 -3.045765e-01 -2.196818e-01  9.228449e-01 -8.561749e-02 
27 -3.402131e-01 -5.731083e-01  7.455210e-01  6.465535e-04 
28 -3.190243e-01 -7.793496e-01  5.035229e-01  1.931383e-01 
29 -2.916776e-01  9.416946e-02  8.627533e-01  4.021355e-01 
30 -1.615992e-01  6.941707e-02  8.320537e-01  5.260738e-01 
31  4.339311e-02  1.899804e-01  8.404113e-01 -5.057008e-01 
32  3.991410e-01 -8.196050e-01 -3.125763e-01  2.668898e-01 
33  6.804506e-01  8.148248e-02 -7.200069e-01 -1.092595e-01 
34  2.957773e-01  6.940205e-02  9.209032e-01 -2.442056e-01 
35  6.783015e-02 -4.902771e-01 -1.901180e-01  8.478695e-01 
36  3.255190e-01 -7.947396e-01 -4.202111e-01 -2.929999e-01 
37 -5.283410e-01 -4.784164e-01 -1.496993e-01 -6.852472e-01 
38 -9.162891e-02 -5.936566e-01  5.200780e-01 -6.072025e-01 
39 -7.940349e-01 -4.551037e-01 -3.961768e-01 -7.370891e-02 
40  8.428036e-02 -6.120967e-01  7.799034e-01  9.992615e-02 
ITEM: TIMESTEP
11160000
ITEM: NUMBER OF ATOMS
40
ITEM: BOX BOUNDS pp pp pp
-1.0000000000000000e+01 1.0000000000000000e+01
-1.0000000000000000e+01 1.0000000000000000e+01
-1.5000000000000000e+02 1.5000000000000000e+02
ITEM: ATOMS id c_quat[1] c_quat[2] c_quat[3] c_quat[4] 
1  2.375935e-01 -7.503271e-01 -4.471832e-01  4.249537e-01 
2  1.611123e-01  6.622512e-01  1.945726e-01 -7.054131e-01 
3 -2.014534e-01 -1.462524e-01 -3.349559e-01 -9.087526e-01 
4  1.241012e-01  2.886956e-01  2.126603e-01  9.252185e-01 
5 -8.879171e-02  3.763153e-01  7.481773e-01 -5.391970e-01 
6 -2.489107e-01  5.426333e-02  1.652799e-01  9.527757e-01 
7  2.366882e-01  4.101368e-01  8.679271e-01  1.498967e-01 
8  3.548908e-01  8.821861e-01 -1.541880e-01  2.683772e-01 
9  5.058621e-01  6.004265e-01 -5.590626e-01 -2.665344e-01 
10  4.055316e-01  5.895764e-01  6.984476e-01 -1.071197e-02 
11 -3.547130e-02 -6.882598e-01 -2.597444e-01 -6.764414e-01 
12  4.117826e-01  5.736724e-01  4.184553e-01  5.711657e-01 
13 -6.046593e-01 -3.581332e-01 -6.376440e-01 -3.154964e-01 
14  7.110905e-01  9.879006e-02  6.940277e-01  5.400461e-02 
15  1.005243e-02  1.451461e-01 -9.893372e-01 -6.600261e-03 
16 -1.058607e-01  4.922447e-01 -8.610652e-01  7.110095e-02 
17  1.999000e-01 -7.284072e-01  6.199430e-01 -2.124469e-01 
18 -6.205998e-04  6.197438e-01 -3.103074e-01  7.208512e-01 
19  2.827713e-01  7.051407e-01 -2.214825e-01  6.113612e-01 
20  5.252129e-02  4.458865e-02 -3.873304e-02  9.968717e-01 
21  1.857035e-01  1.616575e-01  1.582862e-01 -9.562042e-01 
22  3.336833e-01 -8.900862e-01  2.753384e-01  1.434950e-01 
23 -2.590513e-01  9.587799e-01  1.117168e-01 -3.395326e-02 
24 -1.292033e-01 -4.372704e-01 -5.035744e-01  7.338351e-01 
25  4.246776e-01  5.640869e-01  2.609771e-01 -6.582901e-01 
26 -9.722407e-02  1.478777e-01  9.685790e-01 -1.747407e-01 
27 -2.195851e-01 -3.281531e-01  9.183040e-01 -2.855840e-02 
28 -1.918896e-01 -6.231134e-01  7.439473e-01  1.464596e-01 
29 -1.242722e-01  2.287264e-01  8.780774e-01  4.015230e-01 
30 -2.035021e-02 -2.537020e-01  9.082061e-01  3.322392e-01 
31 -4.052980e-02  5.756800e-01  8.157591e-01 -3.856151e-02 
32  3.122101e-02 -5.409069e-01 -7.548103e-01  3.697382e-01 
33  9.558017e-01 -9.518809e-02 -2.604590e-01  9.769021e-02 
34  3.264277e-01  3.087375e-01  8.847272e-01 -1.240317e-01 
35 -1.567297e-02 -8.402064e-01 -2.948116e-01  4.548557e-01 
36  5.671927e-01 -6.792961e-01 -4.650311e-01  2.439846e-02 
37 -7.543544e-01 -6.301176e-01  1.577668e-01 -9.492603e-02 
38 -1.333853e-01 -7.588706e-01 -1.877049e-01 -6.091720e-01 
39 -7.430512e-01 -4.096700e-01 -4.905615e-01  1.984815e-01 
40  3.301425e-01 -6.926613e-02  6.574371e-01 -6.737838e-01 
ITEM: TIMESTEP
11200000
ITEM: NUMBER OF ATOMS
40
ITEM: BOX BOUNDS pp pp pp
-1.0000000000000000e+01 1.0000000000000000e+01
-1.0000000000000000e+01 1.0000000000000000e+01
-1.5000000000000000e+02 1.5000000000000000e+02
ITEM: ATOMS id c_quat[1] c_quat[2] c_quat[3] c_quat[4] 
1  4.393420e-03 -5.994984e-01 -7.998579e-01  2.845583e-02 
2  4.457828e-01  5.635190e-01  2.504564e-01 -6.488418e-01 
3  3.574988e-01  8.284036e-02  1.967363e-01 -9.091903e-01 
4  1.245670e-01  3.495871e-01  2.123036e-01  9.039907e-01 
5  7.055948e-02  8.573981e-01  5.088557e-01 -3.091645e-02 
6 -1.057334e-01 -4.308976e-01 -6.436604e-02  8.938706e-01 
7  6.853016e-01  3.533423e-01  6.080429e-01  1.891952e-01 
8  1.094796e-01  7.731585e-01 -1.887453e-01  5.954959e-01 
9  2.695987e-01  6.834991e-01 -4.809743e-01 -4.783402e-01 
10  3.729208e-01  6.536192e-01  6.538702e-01  7.852220e-02 
11 -1.498075e-01 -6.530332e-01 -9.041967e-03 -7.423096e-01 
12  2.564670e-01  5.433206e-01  6.092200e-01  5.175697e-01 
13 -4.695490e-01 -3.166877e-01 -6.738658e-01 -4.744865e-01 
14  5.561860e-01 -5.500015e-03  7.985807e-01  2.299906e-01 
15 -8.577221e-02  6.251865e-02 -9.838049e-01 -1.444384e-01 
16 -1.703794e-01  3.695445e-01 -9.092743e-01 -8.733876e-02 
17  1.373317e-01 -7.157353e-01  6.836225e-01 -3.903024e-02 
18 -8.275171e-02  6.654531e-01 -2.833492e-01  6.855928e-01 
19 -9.394427e-02  7.192467e-01 -3.476375e-01  5.941437e-01 
20  9.136718e-02  4.295736e-01 -1.622393e-01  8.836272e-01 
21  3.170062e-01 -3.102468e-01  2.283939e-01 -8.666546e-01 
22  2.513176e-01 -8.151418e-01  4.979299e-01 -1.563623e-01 
23 -1.631510e-01  9.594671e-01 -1.219365e-01  1.947719e-01 
24 -3.374238e-01 -5.228102e-01 -5.971865e-01  5.061452e-01 
25  6.332640e-01  6.503257e-01  3.463008e-01 -2.369158e-01 
26 -1.360885e-01  2.549122e-01  9.496941e-01  1.207514e-01 
27 -5.914935e-02 -2.705243e-01  9.539701e-01  1.151479e-01 
28 -1.498135e-01 -7.363793e-01  6.406667e-01  1.576312e-01 
29 -3.830239e-03 -1.546964e-01  9.494735e-01  2.730467e-01 
30  1.288820e-01 -5.661079e-01  7.841421e-01  2.191629e-01 
31 -1.373345e-01  5.738068e-01  7.992609e-01  1.143110e-01 
32 -2.802454e-01 -5.666568e-01 -6.032490e-01  4.862646e-01 
33  8.746878e-01 -4.416288e-01  7.196270e-02 -1.862974e-01 
34  3.653548e-01  3.718150e-01  8.342984e-01 -1.794872e-01 
35 -2.284566e-01 -3.353402e-01 -4.400403e-01  8.010737e-01 
36  8.329584e-01 -4.683660e-01 -2.903827e-01 -4.991422e-02 
37 -3.852933e-01 -6.317051e-01  6.260484e-01 -2.460917e-01 
38 -5.328675e-01 -6.322084e-01 -5.386931e-01 -1.617855e-01 
39 -7.593496e-01 -3.477001e-01 -5.288415e-01  1.510614e-01 
40  1.721641e-01  4.064452e-02  5.642478e-01 -8.064316e-01 
ITEM: TIMESTEP
11240000
ITEM: NUMBER OF ATOMS
40
ITEM: BOX BOUNDS pp pp pp
-1.0000000000000000e+01 1.0000000000000000e+01
-1.0000000000000000e+01 1.0000000000000000e+01
-1.5000000000000000e+02 1.5000000000000000e+02
ITEM: ATOMS id c_quat[1] c_quat[2] c_quat[3] c_quat[4] 
1 -6.481602e-04 -7.785136e-01 -5.438084e-01  3.133506e-01 
2  7.120548e-01  4.158645e-01  1.125650e-01 -5.544040e-01 
3  3.660582e-01 -4.337139e-01  4.372822e-01 -6.976231e-01 
4  7.983555e-02  6.060204e-01 -1.085060e-01  7.839592e-01 
5  1.361779e-03  9.779825e-01  2.081100e-01 -1.544969e-02 
6 -2.442846e-01 -2.211247e-01  8.793327e-02  9.400514e-01 
7  7.194103e-01  1.775645e-01  6.559206e-01  1.438330e-01 
8  5.906308e-02  8.980742e-01 -5.233529e-02  4.327070e-01 
9  5.905279e-01  5.896771e-01 -5.131807e-01 -2.005074e-01 
10  6.502592e-01  2.173129e-01  6.293466e-01  3.658703e-01 
11  8.819113e-02 -7.086255e-01 -3.769569e-01 -5.898947e-01 
12  1.528505e-01  5.081379e-01  6.674056e-01  5.224963e-01 
13 -3.425496e-01 -2.158849e-01 -8.592313e-01 -3.126901e-01 
14  4.194552e-01 -1.600273e-01  8.856901e-01  1.183283e-01 
15 -2.991899e-01  1.176079e-01 -9.386662e-01  1.247380e-01 
16 -1.856102e-01  4.936235e-01 -8.298362e-01  1.823636e-01 
17  1.656855e-01 -7.773708e-01  5.712503e-01 -2.047340e-01 
18  3.453780e-03  5.626519e-01 -2.571369e-01  7.856790e-01 
19  2.491804e-01  6.643935e-01 -7.506497e-02  7.006109e-01 
20 -5.555931e-02  3.031864e-01 -1.007902e-01  9.459559e-01 
21  3.392418e-01 -2.226703e-01  1.133197e-01 -9.069132e-01 
22 -2.516653e-02 -9.252348e-01  3.645253e-01  1.021203e-01 
23 -1.362378e-01  9.753324e-01  1.126750e-01 -1.321753e-01 
24 -3.742159e-01 -6.646601e-01 -4.549557e-01  4.595701e-01 
25  5.727469e-01  7.554700e-01  2.491931e-01 -1.978104e-01 
26 -2.295713e-01  9.736364e-02  8.958286e-01 -3.678430e-01 
27 -5.194515e-01 -3.267863e-01  7.505580e-01 -2.450376e-01 
28 -5.519883e-01 -6.097354e-01  5.685674e-01  1.620855e-02 
29 -3.220027e-01 -7.332370e-02  8.943879e-01  3.016756e-01 
30 -1.939621e-01 -4.624148e-01  7.736681e-01  3.872841e-01 
31  7.356253e-02  8.620652e-01  2.358580e-01  4.424965e-01 
32 -8.627998e-02 -4.753828e-01 -5.245643e-01  7.009988e-01 
33  7.054500e-01 -3.852232e-01  2.356576e-01 -5.462682e-01 
34  2.035935e-01  7.190842e-01  6.643732e-01  8.715653e-03 
35 -1.353515e-01 -4.974397e-01 -8.019868e-01  3.017462e-01 
36  9.342079e-01  7.787238e-02 -3.042429e-01 -1.691972e-01 
37 -3.890326e-01 -6.558554e-01  6.311829e-01  1.418287e-01 
38 -5.368095e-01 -6.277245e-01 -4.464239e-01  3.442428e-01 
39 -6.474253e-01 -6.315190e-01 -4.265414e-01 -9.314247e-03 
40  1.559836e-01  6.812200e-02  8.621938e-01 -4.771273e-01 
ITEM: TIMESTEP
11280000
ITEM: NUMBER OF ATOMS
40
ITEM: BOX BOUNDS pp pp pp
-1.0000000000000000e+01 1.0000000000000000e+01
-1.0000000000000000e+01 1.0000000000000000e+01
-1.5000000000000000e+02 1.5000000000000000e+02
ITEM: ATOMS id c_quat[1] c_quat[2] c_quat[3] c_quat[4] 
1 -3.302660e-01 -6.995234e-01 -4.071063e-01  4.856499e-01 
2  6.964365e-01  4.053570e-01 -5.372623e-02 -5.897249e-01 
3  4.620379e-01 -3.087805e-02  8.161887e-01 -3.455483e-01 
4  4.299241e-01  2.533972e-01  2.732797e-02  8.661457e-01 
5 -1.048648e-01  9.469034e-01 -1.246175e-01 -2.772143e-01 
6 -5.588608e-01  1.417850e-01 -1.498168e-01  8.031977e-01 
7  8.029691e-01  2.377389e-01  4.869520e-01 -2.481907e-01 
8 -6.310440e-01  1.044861e-01  3.313281e-01  6.936049e-01 
9  5.563555e-01  4.409211e-01 -7.042658e-01  8.175410e-03 
10  4.989376e-01  6.251796e-01  5.708299e-01 -1.853777e-01 
11  9.147504e-02 -8.658129e-01 -6.121274e-02 -4.881120e-01 
12  2.059370e-01  7.582113e-01  3.850967e-01  4.841551e-01 
13 -2.952289e-01 -4.968907e-01 -7.184622e-01 -3.869775e-01 
14  3.714846e-01  9.851610e-02  9.040048e-01  1.872675e-01 
15 -4.817396e-01  1.471238e-02 -7.797631e-01 -3.995999e-01 
16 -5.451467e-01  3.870403e-01 -7.433968e-01 -1.939056e-02 
17  4.807520e-01 -6.672215e-01  5.093388e-01 -2.535094e-01 
18 -5.394070e-02  4.983566e-01 -4.960070e-01  7.090191e-01 
19  4.406763e-01  5.897093e-01 -2.361109e-01  6.342705e-01 
20  2.431446e-01  2.976835e-01 -4.387902e-01  8.122367e-01 
21  3.059259e-01 -2.043787e-01  5.470886e-01 -7.518861e-01 
22  4.123143e-01 -7.789376e-01  1.357530e-01  4.525751e-01 
23 -5.095201e-01  7.543233e-01  7.501924e-02 -4.071335e-01 
24 -3.213538e-01 -4.249872e-01 -7.388831e-01  4.125160e-01 
25  4.729184e-01  7.358026e-01  4.204746e-01 -2.411304e-01 
26 -1.960170e-01 -3.796158e-01  8.503509e-01 -3.072013e-01 
27 -3.404272e-01 -6.544249e-01  6.529828e-01 -1.716123e-01 
28 -4.472360e-01 -8.721915e-01  1.981424e-01 -1.261556e-03 
29 -4.741755e-01 -5.139368e-01  7.043769e-01  1.219823e-01 
30 -3.511003e-01 -7.390112e-01  5.520280e-01  1.607983e-01 
31  2.493929e-01  8.307091e-01  4.169822e-01  2.717563e-01 
32  2.820218e-01 -4.270273e-01 -1.991764e-01  8.357273e-01 
33  5.571016e-01  3.243766e-01 -1.390430e-01 -7.517212e-01 
34  3.952141e-01  5.670710e-01  6.950906e-01 -1.977002e-01 
35 -1.019097e-03 -5.445888e-01 -8.379906e-01  3.455130e-02 
36  9.166365e-01 -2.399020e-01 -7.408497e-02 -3.110242e-01 
37 -3.961460e-01 -4.702932e-01  7.721953e-01  1.600222e-01 
38 -7.836882e-01 -5.098757e-01 -3.381221e-01  1.073922e-01 
39 -7.185796e-01 -6.640423e-01 -1.150569e-01 -1.716192e-01 
40  5.816931e-01  3.988387e-01  7.061278e-01 -6.280497e-02 
ITEM: TIMESTEP
11320000
ITEM: NUMBER OF ATOMS
40
ITEM: BOX BOUNDS pp pp pp
-1.0000000000000000e+01 1.0000000000000000e+01
-1.0000000000000000e+01 1.0000000000000000e+01
-1.5000000000000000e+02 1.5000000000000000e+02
ITEM: ATOMS id c_quat[1] c_quat[2] c_quat[3] c_quat[4] 
1 -7.232047e-01 -1.285229e-01 -4.623353e-01  4.966919e-01 
2  7.655915e-01  2.243848e-01  5.082800e-01 -3.243033e-01 
3  2.713761e-01 -5.324310e-02  9.589360e-01 -6.294392e-02 
4  8.045058e-01  1.776498e-01  9.462990e-02  5.587989e-01 
5 -4.520331e-01  7.633062e-01  2.983041e-01 -3.521993e-01 
6 -5.478882e-01  1.426244e-01 -4.979261e-01  6.569219e-01 
7  5.218485e-01 -2.645592e-01  3.015833e-01 -7.528148e-01 
8 -5.096818e-01  7.713844e-02  4.162633e-01  7.489986e-01 
9  6.145425e-01  4.607921e-01 -6.402828e-01 -6.790615e-03 
10  6.977596e-01  3.588680e-01  5.959911e-01  1.707040e-01 
11  1.204206e-01 -8.992996e-01 -2.746412e-01 -3.183259e-01 
12  7.326414e-02  8.286188e-01  4.701518e-01  2.949245e-01 
13 -2.512546e-01 -6.672486e-01 -6.816872e-01 -1.641739e-01 
14  3.566767e-01  2.562772e-01  8.980548e-01 -2.452178e-02 
15 -4.336823e-01 -7.194922e-02 -7.203845e-01 -5.364599e-01 
16 -6.036204e-01  2.786834e-01 -7.031036e-01 -2.522366e-01 
17  6.547701e-01 -5.581907e-01  4.991184e-01 -1.028599e-01 
18  4.568666e-01  3.140693e-01 -2.356027e-01  7.982009e-01 
19  4.845507e-01  4.604425e-01 -2.684162e-01  6.936542e-01 
20 -1.944030e-01  3.373219e-01 -4.704697e-01  7.918836e-01 
21  5.334286e-01 -5.090602e-02  5.363263e-01 -6.520863e-01 
22  2.740832e-01 -8.036777e-01  4.601451e-01  2.593204e-01 
23 -3.821892e-01  8.924679e-01 -8.436789e-02 -2.243089e-01 
24 -3.640856e-01 -6.492334e-01 -5.182416e-01  4.211453e-01 
25  3.934918e-01  8.169019e-01  3.652592e-01 -2.107632e-01 
26 -3.699322e-01 -6.561011e-01  6.007553e-01 -2.679078e-01 
27 -2.235444e-01 -8.478825e-01  4.791686e-01 -3.899423e-02 
28 -1.219485e-01 -9.455969e-01  2.727641e-01  1.287436e-01 
29 -1.489962e-01 -5.038638e-01  8.501182e-01 -3.493594e-02 
30 -2.161494e-01 -7.451258e-01  6.239285e-01  9.370282e-02 
31  4.253033e-01  7.951398e-01  3.311611e-01  2.778528e-01 
32  5.065577e-01 -3.944592e-01 -1.509644e-01  7.516721e-01 
33  4.185647e-01 -1.963338e-02 -6.746477e-03 -9.079497e-01 
34 -1.233574e-01  5.721880e-01  8.080526e-01 -6.659415e-02 
35  3.206345e-02 -5.155356e-01 -8.533177e-01 -7.101983e-02 
36  9.329634e-01 -9.873913e-02  3.291153e-01 -1.072991e-01 
37 -9.618832e-02 -3.293720e-01  8.248874e-01  4.492467e-01 
38 -4.375957e-01 -6.491582e-01 -5.257141e-01 -3.327587e-01 
39 -6.435525e-01 -6.310901e-01 -4.212732e-01 -1.004703e-01 
40  2.963948e-01  1.006981e-01  9.307918e-01  1.887765e-01 
ITEM: TIMESTEP
11360000
ITEM: NUMBER OF ATOMS
40
ITEM: BOX BOUNDS pp pp pp
-1.0000000000000000e+01 1.0000000000000000e+01
-1.0000000000000000e+01 1.0000000000000000e+01
-1.5000000000000000e+02 1.5000000000000000e+02
ITEM: ATOMS id c_quat[1] c_quat[2] c_quat[3] c_quat[4] 
1 -9.251678e-01 -8.057209e-02 -1.850707e-02  3.704459e-01 
2  8.948015e-01  2.455814e-01  3.293734e-01  1.747378e-01 
3 -2.175548e-02 -1.017873e-01  9.902954e-01  9.209241e-02 
4  7.773691e-01 -1.342943e-02  1.816319e-01  6.021019e-01 
5 -5.524055e-01  6.691478e-01  3.434486e-01 -3.593501e-01 
6 -4.886156e-01  1.292401e-01 -1.012314e-01  8.569154e-01 
7  6.175399e-01 -1.340608e-01 -1.622203e-01 -7.578633e-01 
8 -5.462543e-01 -2.341677e-01  2.614113e-01  7.605497e-01 
9  1.520112e-01  3.202680e-01 -9.349047e-01 -1.655665e-02 
10  5.941722e-01  5.877384e-01  5.135311e-01 -1.944445e-01 
11  1.834827e-01 -8.592145e-01  1.064667e-01 -4.655635e-01 
12  2.357221e-02  7.604663e-01  2.601006e-01  5.945444e-01 
13 -2.450378e-01 -6.569872e-01 -5.132978e-01 -4.948230e-01 
14  4.462674e-01  3.592361e-01  7.400504e-01  3.523070e-01 
15 -5.306943e-01 -1.352314e-01 -8.127122e-01 -1.989346e-01 
16 -5.471844e-01  1.713837e-01 -8.120440e-01 -1.086340e-01 
17  6.724949e-01 -4.020283e-01  6.200692e-01 -4.047307e-02 
18  5.795081e-01  3.517330e-01 -3.807089e-01  6.288998e-01 
19  8.912726e-01  3.245932e-01 -7.316409e-02  3.080900e-01 
20  1.313116e-01  4.643896e-01 -4.047880e-01  7.766892e-01 
21  2.074285e-01 -2.637483e-01  6.067387e-01 -7.206097e-01 
22  3.319237e-01 -7.990330e-01  4.171445e-01  2.781427e-01 
23 -5.040796e-01  8.615021e-01 -2.187796e-02 -5.691482e-02 
24  8.838492e-02 -6.644811e-01 -6.260977e-01  3.983148e-01 
25  3.035469e-02  8.582236e-01  2.779914e-01 -4.304086e-01 
26 -2.907311e-01 -7.582754e-01  5.504875e-01 -1.935391e-01 
27 -2.949546e-01 -8.903807e-01  3.400625e-01 -6.768608e-02 
28 -3.182724e-01 -9.379579e-01  6.826569e-03  1.374445e-01 
29 -4.507010e-01 -2.040750e-01  8.687631e-01  2.174071e-02 
30 -3.592869e-01 -5.261501e-01  7.507475e-01  1.745197e-01 
31  2.717706e-01  6.714912e-01  3.850410e-01  5.718250e-01 
32  2.804702e-01 -3.626616e-01  3.950667e-01  7.960750e-01 
33  2.056638e-01  4.544626e-01 -2.022141e-01 -8.427785e-01 
34 -4.613268e-02  3.092830e-01  9.323414e-01 -1.815358e-01 
35  4.350308e-01 -3.959506e-01 -8.086165e-01 -1.052289e-02 
36  8.023590e-01  2.641405e-01  3.504932e-01 -4.044802e-01 
37 -1.020829e-01 -6.419414e-01  7.495795e-01  1.249833e-01 
38 -5.673334e-01 -2.023314e-01 -7.980310e-01  1.847422e-02 
39 -6.248399e-01 -3.932256e-01  1.229275e-02  6.743868e-01 
40  1.513509e-01  4.330656e-01  8.452975e-01  2.738964e-01 
ITEM: TIMESTEP
11400000
ITEM: NUMBER OF ATOMS
40
ITEM: BOX BOUNDS pp pp pp
-1.0000000000000000e+01 1.0000000000000000e+01
-1.0000000000000000e+01 1.0000000000000000e+01
-1.5000000000000000e+02 1.5000000000000000e+02
ITEM: ATOMS id c_quat[1] c_quat[2] c_quat[3] c_quat[4] 
1 -9.447887e-01  1.825710e-02 -3.269713e-01  1.143366e-02 
2  7.089395e-01  4.465924e-01  3.910902e-01  3.807998e-01 
3  5.774707e-04 -5.585240e-01  6.733633e-01  4.843888e-01 
4  8.092670e-01 -2.828859e-02  3.698971e-01  4.554808e-01 
5 -3.772309e-01  1.684958e-01  7.109842e-01 -5.690408e-01 
6 -1.939050e-01 -2.194259e-01  5.327739e-01  7.939805e-01 
7  7.235463e-01  5.122897e-01  1.381874e-01 -4.415249e-01 
8 -8.408622e-01 -1.074552e-01 -1.128180e-01  5.183399e-01 
9  5.688345e-01  4.916909e-01 -6.551588e-01 -7.371836e-02 
10  5.570108e-01  5.018232e-01  6.525393e-01  1.100218e-01 
11 -4.841954e-02 -8.207319e-01 -1.690482e-01 -5.435783e-01 
12  3.613333e-02  8.895144e-01  1.608262e-01  4.261378e-01 
13 -1.526345e-01 -7.274200e-01 -5.193336e-01 -4.217292e-01 
14  4.215618e-01  2.501377e-01  7.042218e-01  5.136034e-01 
15 -5.616484e-01  3.189168e-02 -7.552967e-01 -3.362454e-01 
16 -6.807181e-01  3.620985e-01 -6.337476e-01 -6.222175e-02 
17  5.050729e-01 -6.645314e-01  5.340115e-01 -1.346517e-01 
18  4.528720e-01  2.992988e-01 -1.407665e-01  8.279565e-01 
19  7.272374e-01  3.880080e-01 -3.227929e-02  5.652730e-01 
20  5.046032e-03  2.897495e-01 -5.633659e-01  7.737174e-01 
21  1.901980e-01 -5.786247e-02  6.246622e-01 -7.551648e-01 
22  1.547766e-01 -8.697837e-01  4.062194e-01 -2.334660e-01 
23  2.230175e-02  9.352925e-01  2.664669e-02  3.521656e-01 
24 -1.307497e-01 -7.705303e-01 -2.678583e-01  5.634177e-01 
25  3.865146e-02  8.523026e-01  2.661627e-01 -4.486020e-01 
26 -2.747803e-01 -7.547789e-01  2.752724e-01 -5.282326e-01 
27 -5.296464e-01 -7.766381e-01 -1.108427e-02 -3.408592e-01 
28 -6.219116e-01 -7.070960e-01 -3.267573e-01 -8.044151e-02 
29 -5.140823e-01 -3.993185e-01  7.472604e-01 -1.336636e-01 
30 -4.029442e-01 -8.081952e-01  4.245827e-01  6.470005e-02 
31  4.874939e-01  1.201607e-02  3.388142e-01  8.046181e-01 
32  3.297369e-02 -5.607760e-01  4.248453e-01  7.098940e-01 
33  6.070029e-02  6.178351e-01 -1.487110e-01 -7.697274e-01 
34 -1.215910e-01  3.954237e-01  8.990747e-01  1.432492e-01 
35 -1.828021e-01 -2.206815e-01 -9.506954e-01  1.185802e-01 
36  7.185857e-01  3.584724e-01  3.906936e-01 -4.499896e-01 
37  1.400359e-01 -7.491319e-01  6.173340e-01  1.951668e-01 
38 -8.782229e-01 -5.004088e-02 -4.604330e-01  1.192552e-01 
39 -6.200781e-01  1.132338e-02  7.411756e-02  7.809491e-01 
40  3.813480e-01  5.940966e-01  6.416108e-01 -2.999310e-01 
ITEM: TIMESTEP
11440000
ITEM: NUMBER OF ATOMS
40
ITEM: BOX BOUNDS pp pp pp
-1.0000000000000000e+01 1.0000000000000000e+01
-1.0000000000000000e+01 1.0000000000000000e+01
-1.5000000000000000e+02 1.5000000000000000e+02
ITEM: ATOMS id c_quat[1] c_quat[2] c_quat[3] c_quat[4] 
1 -8.310498e-01 -3.823504e-02 -5.297015e-01 -1.652591e-01 
2  3.680119e-01  7.007553e-01 -6.022939e-01  1.036882e-01 
3 -1.161114e-01 -3.140709e-01  9.179710e-01  2.126190e-01 
4  2.400585e-01 -7.583610e-02  8.222530e-01  5.104123e-01 
5 -3.720870e-01  4.907168e-01  1.939334e-02 -7.876371e-01 
6 -1.186497e-01 -1.666394e-01  7.157754e-01  6.676969e-01 
7  8.039426e-01  3.343662e-01  4.912420e-01  2.359859e-02 