LAMMPS (29 Mar 2019)
OMP_NUM_THREADS environment is not set. Defaulting to 1 thread. (src/comm.cpp:88)
  using 1 OpenMP thread(s) per MPI task
Reading data file ...
  orthogonal box = (-10 -10 -150) to (10 10 150)
  1 by 1 by 1 MPI processor grid
  reading atoms ...
  1871 atoms
  reading velocities ...
  1871 velocities
  1871 ellipsoids
  scanning bonds ...
  2 = max bonds/atom
  reading bonds ...
  39 bonds
Finding 1-2 1-3 1-4 neighbors ...
  special bond factors lj:   0          0          0         
  special bond factors coul: 0          0          0         
  2 = max # of 1-2 neighbors
  2 = max # of 1-3 neighbors
  4 = max # of 1-4 neighbors
  6 = max # of special neighbors
  special bonds CPU = 0.000757933 secs
  read_data CPU = 0.0506752 secs
Setting atom values ...
  1871 settings made for mass
40 atoms in group dna
1831 atoms in group mem
1 atoms in group TL
Finding 1-2 1-3 1-4 neighbors ...
 Special bond factors lj:   0          1          1         
 Special bond factors coul: 1          1          1         
Neighbor list info ...
  update every 1 steps, delay 0 steps, check yes
  max neighbors/atom: 2000, page size: 100000
  master list distance cutoff = 2.6274
  ghost atom cutoff = 2.6274
  binsize = 1.3137, bins = 16 16 229
  6 neighbor lists, perpetual/occasional/extra = 6 0 0
  (1) pair oxdna2/excv, perpetual
      attributes: half, newton off
      pair build: half/bin/newtoff
      stencil: half/bin/3d/newtoff
      bin: standard
  (2) pair oxdna2/stk, perpetual, skip from (1)
      attributes: half, newton off
      pair build: skip
      stencil: none
      bin: none
  (3) pair oxdna2/hbond, perpetual, copy from (2)
      attributes: half, newton off
      pair build: copy
      stencil: none
      bin: none
  (4) pair oxdna2/xstk, perpetual, copy from (2)
      attributes: half, newton off
      pair build: copy
      stencil: none
      bin: none
  (5) pair oxdna2/coaxstk, perpetual, copy from (2)
      attributes: half, newton off
      pair build: copy
      stencil: none
      bin: none
  (6) pair oxdna2/dh, perpetual, skip from (1)
      attributes: half, newton off
      pair build: skip
      stencil: none
      bin: none
Setting up Verlet run ...
  Unit style    : lj
  Current step  : 0
  Time step     : 0.003
Per MPI rank memory allocation (min/avg/max) = 8.482 | 8.482 | 8.482 Mbytes
Step Temp E_pair E_mol TotEng Press 
       0            0 -0.0082588756 0.00078499959 -0.007473876 -0.000115721 
40000  ekin = 5.714504754599 |  erot = 5.98849073601118 | epot = -12.2835410217126 | etot = -0.580545531102389
80000  ekin = 6.64360872028294 |  erot = 6.35624348009765 | epot = -14.7434504395019 | etot = -1.74359823912129
120000  ekin = 6.66753638072934 |  erot = 5.91035531296393 | epot = -14.7869065825802 | etot = -2.20901488888696
160000  ekin = 6.32034171631162 |  erot = 5.77558398266081 | epot = -14.9712393248315 | etot = -2.87531362585904
200000  ekin = 5.53938188696677 |  erot = 5.75078505675138 | epot = -15.5226939100109 | etot = -4.2325269662927
240000  ekin = 7.08641081604639 |  erot = 6.85707589696112 | epot = -14.2238106424379 | etot = -0.280323929430342
280000  ekin = 6.28622270547888 |  erot = 5.89692217087143 | epot = -13.2896767038097 | etot = -1.1065318274594
320000  ekin = 6.60281388304146 |  erot = 6.00441969694947 | epot = -13.6582379627868 | etot = -1.05100438279585
360000  ekin = 5.84650999728705 |  erot = 5.58499543801969 | epot = -12.6616936231534 | etot = -1.23018818784669
400000  ekin = 6.99451104507539 |  erot = 5.46932039486876 | epot = -13.1566272257464 | etot = -0.692795785802254
440000  ekin = 6.08445476054829 |  erot = 6.58341008861356 | epot = -12.9583013865194 | etot = -0.290436537357508
480000  ekin = 5.59533208327712 |  erot = 5.17984143783317 | epot = -14.1311717947492 | etot = -3.35599827363891
520000  ekin = 6.37405818455834 |  erot = 6.04392608549471 | epot = -13.488925120058 | etot = -1.07094085000499
560000  ekin = 4.63659634186925 |  erot = 6.83230594348405 | epot = -12.7296585322809 | etot = -1.26075624692765
600000  ekin = 6.26610055600167 |  erot = 4.86652210440888 | epot = -14.3727913490872 | etot = -3.2401686886766
640000  ekin = 6.83255295256574 |  erot = 6.1660467105495 | epot = -14.2133398051989 | etot = -1.21474014208364
680000  ekin = 6.37008477569973 |  erot = 6.77108407839803 | epot = -13.0347821041707 | etot = 0.106386749927072
720000  ekin = 6.33635555588644 |  erot = 5.76486366743793 | epot = -14.5614330235924 | etot = -2.460213800268
760000  ekin = 5.79466783054056 |  erot = 4.46994921358421 | epot = -15.1422535757742 | etot = -4.87763653164947
800000  ekin = 5.39613779328754 |  erot = 6.53305293604902 | epot = -14.1455472930694 | etot = -2.21635656373281
840000  ekin = 6.64681659599913 |  erot = 6.18397305690705 | epot = -15.5555197581208 | etot = -2.72473010521459
880000  ekin = 6.24725106082664 |  erot = 6.84259437992709 | epot = -15.4328930948799 | etot = -2.34304765412618
920000  ekin = 5.82342597708907 |  erot = 6.24058350421888 | epot = -16.5113658022052 | etot = -4.44735632089729
960000  ekin = 6.26859477063405 |  erot = 7.50079677930541 | epot = -15.8488362593153 | etot = -2.07944470937586
1000000  ekin = 6.7196435929066 |  erot = 5.05098356699195 | epot = -16.188505915186 | etot = -4.41787875528749
1040000  ekin = 6.08598542158526 |  erot = 7.66491640762909 | epot = -15.2997269999341 | etot = -1.54882517071972
1080000  ekin = 6.40551093530045 |  erot = 6.39400041051981 | epot = -13.4970632030796 | etot = -0.697551857259377
1120000  ekin = 6.60689670770904 |  erot = 6.62100689937628 | epot = -16.5528389015497 | etot = -3.32493529446442
1160000  ekin = 7.32021476784632 |  erot = 5.27796166870363 | epot = -14.5182113547546 | etot = -1.92003491820468
1200000  ekin = 6.40673265136441 |  erot = 7.08578467946936 | epot = -15.513138396324 | etot = -2.02062106549027
1240000  ekin = 6.40897202318261 |  erot = 6.86307888348125 | epot = -16.1284682165014 | etot = -2.85641730983755
1280000  ekin = 7.10120156326674 |  erot = 5.13979027069458 | epot = -14.4597682416755 | etot = -2.21877640771415
1320000  ekin = 5.28480956329839 |  erot = 6.72900665613555 | epot = -15.3829598330966 | etot = -3.36914361366266
1360000  ekin = 5.36106118431378 |  erot = 6.32663329812419 | epot = -14.7582034935508 | etot = -3.07050901111284
1400000  ekin = 6.17889741116999 |  erot = 6.56928101138844 | epot = -14.9809344669028 | etot = -2.2327560443444
1440000  ekin = 7.1155327718383 |  erot = 5.58560726281925 | epot = -13.8519956582566 | etot = -1.15085562359906
1480000  ekin = 6.58851730301325 |  erot = 6.42599234903973 | epot = -14.3932611643539 | etot = -1.37875151230094
1520000  ekin = 5.04269475903557 |  erot = 6.63686423894543 | epot = -11.4754336494511 | etot = 0.204125348529885
1560000  ekin = 7.26377800690202 |  erot = 6.74903749389225 | epot = -15.1690138280618 | etot = -1.1561983272675
1600000  ekin = 5.10693769256268 |  erot = 5.58421624617191 | epot = -13.0009061545414 | etot = -2.30975221580678
1640000  ekin = 4.87003480208427 |  erot = 5.09763901708263 | epot = -14.1103404279127 | etot = -4.14266660874577
1680000  ekin = 5.61787494311198 |  erot = 5.75336916491741 | epot = -13.390983672517 | etot = -2.01973956448758
1720000  ekin = 5.81730650429029 |  erot = 6.83047962622494 | epot = -13.8423714662567 | etot = -1.19458533574152
1760000  ekin = 6.16190224060068 |  erot = 4.75524784904857 | epot = -13.4872603856937 | etot = -2.57011029604448
1800000  ekin = 5.59137468611 |  erot = 5.35066277655174 | epot = -12.2007218442058 | etot = -1.25868438154407
1840000  ekin = 6.56210273496867 |  erot = 5.46366904328593 | epot = -14.6437012414573 | etot = -2.61792946320273
1880000  ekin = 7.24988536494834 |  erot = 6.1708914304633 | epot = -15.3022223792268 | etot = -1.88144558381521
1920000  ekin = 6.01529606426246 |  erot = 5.58551956426026 | epot = -14.6395653095621 | etot = -3.0387496810394
1960000  ekin = 5.69738325144245 |  erot = 6.24777311186709 | epot = -13.0373746651329 | etot = -1.09221830182335
2000000  ekin = 7.69045803904233 |  erot = 5.47959423126125 | epot = -15.6680128821274 | etot = -2.49796061182379
2040000  ekin = 5.58044327099872 |  erot = 6.77390763607953 | epot = -15.6495778540755 | etot = -3.29522694699724
2080000  ekin = 6.13231070864244 |  erot = 6.40775197829538 | epot = -13.685525240047 | etot = -1.1454625531092
2120000  ekin = 6.83323398817318 |  erot = 6.33203340347509 | epot = -12.774542897978 | etot = 0.3907244936703
2160000  ekin = 5.61169822160012 |  erot = 5.23469660381637 | epot = -12.4925096644125 | etot = -1.646114838996
2200000  ekin = 4.88258537232683 |  erot = 5.01667351165337 | epot = -13.396797761459 | etot = -3.49753887747877
2240000  ekin = 6.63229814173519 |  erot = 6.71678002158145 | epot = -12.2559162600748 | etot = 1.0931619032418
2280000  ekin = 5.80353417154788 |  erot = 4.48140938685244 | epot = -13.3395133216564 | etot = -3.05456976325604
2320000  ekin = 6.95440135226865 |  erot = 7.90176907509111 | epot = -12.7618552807713 | etot = 2.09431514658843
2360000  ekin = 7.03708288619216 |  erot = 6.30918222963315 | epot = -13.3439179968489 | etot = 0.00234711897638462
2400000  ekin = 5.1538758431523 |  erot = 4.86436607999472 | epot = -11.854435851482 | etot = -1.83619392833503
2440000  ekin = 6.87152158990184 |  erot = 6.60949421456188 | epot = -13.8398305198541 | etot = -0.358814715390361
2480000  ekin = 6.00668802374649 |  erot = 6.51635296848028 | epot = -13.4991635922061 | etot = -0.976122599979284
2520000  ekin = 7.09556775515814 |  erot = 7.88330506344139 | epot = -13.7157179360066 | etot = 1.26315488259292
2560000  ekin = 4.96136071167421 |  erot = 6.34012754187191 | epot = -13.3569700051588 | etot = -2.05548175161265
2600000  ekin = 6.05479437246438 |  erot = 6.82326243206653 | epot = -13.5675510090007 | etot = -0.68949420446979
2640000  ekin = 5.05922811888504 |  erot = 5.31074726468858 | epot = -13.9197495318768 | etot = -3.54977414830319
2680000  ekin = 7.66544893632268 |  erot = 6.39169590812113 | epot = -13.0508760391602 | etot = 1.00626880528362
2720000  ekin = 6.29404102508454 |  erot = 6.43880822851216 | epot = -14.0751804083971 | etot = -1.34233115480039
2760000  ekin = 5.20731685394863 |  erot = 7.74267976556798 | epot = -12.082933668173 | etot = 0.867062951343659
2800000  ekin = 6.27800303189729 |  erot = 6.03002752461829 | epot = -13.3895539588671 | etot = -1.0815234023515
2840000  ekin = 6.48819164019734 |  erot = 6.43502210083366 | epot = -13.8828174647976 | etot = -0.959603723766621
2880000  ekin = 5.86429185282318 |  erot = 6.98435022146742 | epot = -15.0977571228534 | etot = -2.24911504856275
2920000  ekin = 5.41445999487243 |  erot = 5.61287547764871 | epot = -13.508037414249 | etot = -2.48070194172785
2960000  ekin = 5.38959169788844 |  erot = 6.51144683394572 | epot = -13.9064730345264 | etot = -2.00543450269226
3000000  ekin = 5.11001915529707 |  erot = 6.05762767756599 | epot = -13.0842911117916 | etot = -1.91664427892855
3040000  ekin = 5.56339443531796 |  erot = 5.84756233229574 | epot = -13.3318015171829 | etot = -1.92084474956919
3080000  ekin = 6.1604749040672 |  erot = 5.93052658436221 | epot = -13.7422576471699 | etot = -1.65125615874054
3120000  ekin = 5.31764691957779 |  erot = 6.58342883496909 | epot = -13.990773073903 | etot = -2.08969731935615
3160000  ekin = 5.55876170842616 |  erot = 6.50532054037431 | epot = -12.494801348216 | etot = -0.430719099415496
3200000  ekin = 5.55053964210416 |  erot = 7.08476511078813 | epot = -13.2451229739782 | etot = -0.609818221085904
3240000  ekin = 6.65755310249444 |  erot = 7.10047180873788 | epot = -14.671765793759 | etot = -0.913740882526689
3280000  ekin = 5.32643263743819 |  erot = 5.29800108181961 | epot = -13.4483346953506 | etot = -2.82390097609281
3320000  ekin = 6.61032922472751 |  erot = 5.25118536322202 | epot = -13.4200296169839 | etot = -1.55851502903438
3360000  ekin = 7.25654238035326 |  erot = 6.22663079376261 | epot = -12.969494192624 | etot = 0.513678981491834
3400000  ekin = 6.35560084494561 |  erot = 6.65230712961164 | epot = -13.8244757967089 | etot = -0.816567822151606
3440000  ekin = 6.52824256347596 |  erot = 6.61028795437162 | epot = -13.2110504933053 | etot = -0.0725199754577357
3480000  ekin = 5.39926990705305 |  erot = 7.12029637099546 | epot = -13.8787882775062 | etot = -1.35922199945772
3520000  ekin = 7.35517260428716 |  erot = 6.50041156851172 | epot = -13.6222265049126 | etot = 0.233357667886242
3560000  ekin = 5.8696455506295 |  erot = 5.90137562995387 | epot = -13.7071302176591 | etot = -1.9361090370757
3600000  ekin = 6.00680393870566 |  erot = 5.92230776850876 | epot = -15.1353722387002 | etot = -3.20626053148582
3640000  ekin = 5.89894306949124 |  erot = 6.0341012338034 | epot = -13.1115866406904 | etot = -1.17854233739578
3680000  ekin = 7.51282364093045 |  erot = 6.13192907157771 | epot = -13.068402144479 | etot = 0.576350568029145
3720000  ekin = 6.70512927683051 |  erot = 5.12817180644808 | epot = -11.3855424537283 | etot = 0.447758629550265
3760000  ekin = 6.15139348126406 |  erot = 7.08041950296298 | epot = -12.1562539546156 | etot = 1.07555902961147
3800000  ekin = 4.47414013550143 |  erot = 6.04998252007709 | epot = -13.9733567430015 | etot = -3.44923408742302
3840000  ekin = 7.28378033345486 |  erot = 6.51346388230133 | epot = -11.6807576785628 | etot = 2.11648653719335
3880000  ekin = 5.11386913200649 |  erot = 6.07247303156569 | epot = -10.2929724736316 | etot = 0.893369689940604
3920000  ekin = 7.18612804356282 |  erot = 5.01028126669383 | epot = -14.2800050315733 | etot = -2.0835957213167
3960000  ekin = 5.47584583850885 |  erot = 5.82264428965038 | epot = -13.0704263364514 | etot = -1.77193620829216
4000000  ekin = 7.29072946536909 |  erot = 6.17836749389297 | epot = -12.542894826768 | etot = 0.926202132494094
4040000  ekin = 5.96279351064674 |  erot = 5.58285676281912 | epot = -14.9310745624711 | etot = -3.38542428900529
4080000  ekin = 7.6529301827539 |  erot = 5.36622913184761 | epot = -14.1741563522071 | etot = -1.15499703760557
4120000  ekin = 6.4395306369291 |  erot = 6.32792210550004 | epot = -13.9598000209739 | etot = -1.19234727854478
4160000  ekin = 5.27416624273136 |  erot = 6.4812631285697 | epot = -12.7486822403107 | etot = -0.993252869009659
4200000  ekin = 6.19967266276873 |  erot = 6.48199441287091 | epot = -14.5542750222733 | etot = -1.87260794663364
4240000  ekin = 5.60424936175351 |  erot = 6.47165822378087 | epot = -15.7413980690671 | etot = -3.66549048353272
4280000  ekin = 6.781437569869 |  erot = 4.91569760671308 | epot = -14.872147559289 | etot = -3.17501238270696
4320000  ekin = 6.36534035614617 |  erot = 5.86698216368328 | epot = -13.5545415918859 | etot = -1.32221907205642
4360000  ekin = 6.92636295697324 |  erot = 7.71114300961562 | epot = -14.1581804603974 | etot = 0.479325506191413
4400000  ekin = 5.4847981032335 |  erot = 6.3267734570777 | epot = -14.3605958815841 | etot = -2.54902432127293
4440000  ekin = 6.18743605754776 |  erot = 6.26577747076515 | epot = -15.6392258402348 | etot = -3.18601231192185
4480000  ekin = 6.08897542705101 |  erot = 5.41213501121756 | epot = -12.6635862643152 | etot = -1.16247582604662
4520000  ekin = 6.24177733189662 |  erot = 6.23068126915147 | epot = -15.4207482197489 | etot = -2.9482896187008
4560000  ekin = 5.64358416356129 |  erot = 5.91974435702238 | epot = -15.8144530232413 | etot = -4.25112450265768
4600000  ekin = 7.19555756339474 |  erot = 6.46990639494523 | epot = -13.894678875659 | etot = -0.229214917319034
4640000  ekin = 5.31227350695915 |  erot = 4.3074893803047 | epot = -13.6256187904208 | etot = -4.00585590315698
4680000  ekin = 6.07061429325407 |  erot = 5.36014454319845 | epot = -14.0703858569611 | etot = -2.63962702050853
4720000  ekin = 6.71542320171943 |  erot = 5.6612103823587 | epot = -13.6718896442744 | etot = -1.29525606019622
4760000  ekin = 5.39853211256226 |  erot = 6.9457472778323 | epot = -14.8979389183627 | etot = -2.55365952796815
4800000  ekin = 6.76299833984858 |  erot = 5.95716177377143 | epot = -13.8459859274862 | etot = -1.12582581386621
4840000  ekin = 4.85101977405105 |  erot = 5.48721489655315 | epot = -14.0182984695638 | etot = -3.68006379895957
4880000  ekin = 7.1803984549655 |  erot = 5.69586550654703 | epot = -13.6417771090691 | etot = -0.765513147556618
4920000  ekin = 5.73705834483915 |  erot = 5.25358940051947 | epot = -12.9632065774367 | etot = -1.97255883207811
4960000  ekin = 5.7043369564333 |  erot = 6.23635648039776 | epot = -12.9835272834224 | etot = -1.0428338465913
5000000  ekin = 6.81790085598632 |  erot = 4.86834094688301 | epot = -11.2420561569883 | etot = 0.444185645880976
5040000  ekin = 6.49771258062616 |  erot = 7.86059576356414 | epot = -13.2273620530722 | etot = 1.13094629111809
5080000  ekin = 5.91329926340163 |  erot = 6.00261089703466 | epot = -13.3999075001174 | etot = -1.48399733968111
5120000  ekin = 5.59566720907614 |  erot = 7.41832583648174 | epot = -13.685205257302 | etot = -0.671212211744118
5160000  ekin = 5.37340220684484 |  erot = 6.66965870502592 | epot = -12.4519359732604 | etot = -0.408875061389669
5200000  ekin = 4.40770801913681 |  erot = 7.44468885999333 | epot = -12.778067497457 | etot = -0.925670618326881
5240000  ekin = 7.0670188228889 |  erot = 6.00686359410611 | epot = -11.8955723606433 | etot = 1.17831005635171
5280000  ekin = 6.70650039639562 |  erot = 5.26707667291743 | epot = -11.7813520414669 | etot = 0.192225027846163
5320000  ekin = 4.81901293380188 |  erot = 6.03955606105311 | epot = -11.1834521684814 | etot = -0.324883173626398
5360000  ekin = 6.28353581506992 |  erot = 6.71107977261821 | epot = -11.354115230749 | etot = 1.64050035693915
5400000  ekin = 6.22197410166673 |  erot = 6.58165159425223 | epot = -9.92932304932914 | etot = 2.87430264658981
5440000  ekin = 5.8368631352477 |  erot = 6.18683752646206 | epot = -11.8615873195144 | etot = 0.162113342195383
5480000  ekin = 5.61262148797331 |  erot = 6.66603297485282 | epot = -10.0690997079912 | etot = 2.20955475483489
5520000  ekin = 5.16969020098102 |  erot = 6.76810078216558 | epot = -10.6552970288284 | etot = 1.28249395431816
5560000  ekin = 7.44408497345495 |  erot = 5.49514475878553 | epot = -9.67888351939527 | etot = 3.26034621284522
5600000  ekin = 5.72015739893554 |  erot = 5.97120582565181 | epot = -10.1444811748231 | etot = 1.54688204976429
5640000  ekin = 6.6614501089662 |  erot = 5.99124078055042 | epot = -11.9403194046136 | etot = 0.712371484902976
5680000  ekin = 6.52711118454892 |  erot = 5.63937877219266 | epot = -9.88737543385644 | etot = 2.27911452288514
5720000  ekin = 5.68767171831784 |  erot = 6.0528322242022 | epot = -10.7371906456612 | etot = 1.00331329685887
5760000  ekin = 4.8066003297403 |  erot = 5.69784056468346 | epot = -11.7912094288846 | etot = -1.28676853446086
5800000  ekin = 5.83515334403935 |  erot = 6.70551150371416 | epot = -11.5296135987948 | etot = 1.0110512489587
5840000  ekin = 6.86091217691856 |  erot = 6.11686310010489 | epot = -12.4985721549228 | etot = 0.479203122100667
5880000  ekin = 5.98916578191038 |  erot = 7.45711010956812 | epot = -10.6768551737741 | etot = 2.76942071770443
5920000  ekin = 5.91946432673622 |  erot = 6.90915645181472 | epot = -11.9324442076943 | etot = 0.896176570856625
5960000  ekin = 5.738934529153 |  erot = 6.62480561005824 | epot = -10.550209278564 | etot = 1.81353086064719
6000000  ekin = 4.9981177419414 |  erot = 6.02989956402481 | epot = -13.012767727318 | etot = -1.98475042135184
6040000  ekin = 5.78708690623347 |  erot = 5.95351539602523 | epot = -12.9495876897157 | etot = -1.208985387457
6080000  ekin = 5.19917573162692 |  erot = 5.79516158652523 | epot = -11.5179157345481 | etot = -0.523578416395932
6120000  ekin = 7.67197285105582 |  erot = 6.56316524371893 | epot = -12.4557991038525 | etot = 1.77933899092227
6160000  ekin = 6.60319161354882 |  erot = 5.50784476469304 | epot = -12.3623342389122 | etot = -0.251297860670373
6200000  ekin = 4.99437836280169 |  erot = 6.73357225546612 | epot = -10.3336018541351 | etot = 1.39434876413274
6240000  ekin = 6.2043293317566 |  erot = 6.20635622266445 | epot = -12.8987646328342 | etot = -0.488079078413158
6280000  ekin = 6.01433351993478 |  erot = 5.68077319052878 | epot = -13.0525491834399 | etot = -1.35744247297636
6320000  ekin = 6.38643121743842 |  erot = 5.42202072729107 | epot = -12.8416433055017 | etot = -1.03319136077222
6360000  ekin = 6.75245831777394 |  erot = 6.17318861814992 | epot = -10.8972054238648 | etot = 2.02844151205905
6400000  ekin = 5.4507621222964 |  erot = 6.44049996746099 | epot = -11.7051756251556 | etot = 0.186086464601814
6440000  ekin = 6.61337553530087 |  erot = 6.31729723468634 | epot = -12.7593909930111 | etot = 0.171281776976084
6480000  ekin = 5.51519994310061 |  erot = 7.38358530028629 | epot = -12.919691766 | etot = -0.0209065226130623
6520000  ekin = 6.37939052067472 |  erot = 7.34792414129177 | epot = -11.3753975347738 | etot = 2.35191712719267
6560000  ekin = 6.25618811151664 |  erot = 5.21566828838473 | epot = -12.5884851020726 | etot = -1.11662870217119
6600000  ekin = 5.93784129687382 |  erot = 7.51949918616547 | epot = -11.4880611910472 | etot = 1.9692792919921
6640000  ekin = 6.55883100438392 |  erot = 6.39870758117031 | epot = -12.7193595891706 | etot = 0.238178996383656
6680000  ekin = 5.6970611468764 |  erot = 7.37917953805949 | epot = -13.1155446952528 | etot = -0.0393040103168847
6720000  ekin = 5.20950895369158 |  erot = 4.19948901779686 | epot = -12.8098217311154 | etot = -3.40082375962699
6760000  ekin = 5.93023313561131 |  erot = 7.09293555027338 | epot = -10.9670981981734 | etot = 2.05607048771127
6800000  ekin = 5.99520281151571 |  erot = 6.77228558281416 | epot = -11.7416115603842 | etot = 1.02587683394569
6840000  ekin = 6.54360414342275 |  erot = 6.28915339880448 | epot = -12.1604453892942 | etot = 0.672312152932978
6880000  ekin = 5.64927554258423 |  erot = 6.24747231819996 | epot = -12.148207132601 | etot = -0.251459271816827
6920000  ekin = 5.7523348499256 |  erot = 5.36553130728261 | epot = -10.3551444948212 | etot = 0.762721662387007
6960000  ekin = 5.18519377475255 |  erot = 6.31060030851028 | epot = -12.9895791482042 | etot = -1.49378506494135
7000000  ekin = 5.8689320384691 |  erot = 6.58534039634385 | epot = -11.960561095781 | etot = 0.493711339031897
7040000  ekin = 6.76835833182248 |  erot = 5.49203467866272 | epot = -11.6404402016966 | etot = 0.619952808788632
7080000  ekin = 6.02359630275511 |  erot = 5.82158880794918 | epot = -11.8294678117186 | etot = 0.0157172989857131
7120000  ekin = 7.6850739263976 |  erot = 7.09391543114899 | epot = -11.9614194541937 | etot = 2.81756990335289
7160000  ekin = 5.4549291631239 |  erot = 5.98793661159633 | epot = -12.6591449470433 | etot = -1.21627917232306
7200000  ekin = 6.15987374437134 |  erot = 5.28486925809888 | epot = -11.1339801302833 | etot = 0.310762872186931
7240000  ekin = 6.40604558295928 |  erot = 5.97087876417626 | epot = -10.3454415471285 | etot = 2.03148280000707
7280000  ekin = 5.956422822736 |  erot = 6.32828216955993 | epot = -12.933426145621 | etot = -0.648721153325042
7320000  ekin = 4.10560420139392 |  erot = 6.53550362386423 | epot = -11.9190845156751 | etot = -1.27797669041693
7360000  ekin = 7.13753887674963 |  erot = 6.54134609584144 | epot = -11.5994095770441 | etot = 2.07947539554694
7400000  ekin = 6.56171801891986 |  erot = 7.20441609179428 | epot = -10.9813127344679 | etot = 2.78482137624626
7440000  ekin = 6.09781925089983 |  erot = 5.8221686258212 | epot = -13.5514804291955 | etot = -1.6314925524745
7480000  ekin = 5.57756115666062 |  erot = 6.80271117432568 | epot = -12.2830403604411 | etot = 0.0972319705452467
7520000  ekin = 5.33884183729041 |  erot = 6.40142934127173 | epot = -12.3040390711993 | etot = -0.563767892637168
7560000  ekin = 5.08862068737995 |  erot = 6.01119315861482 | epot = -10.6506880479673 | etot = 0.449125798027509
7600000  ekin = 6.4377649008499 |  erot = 6.41369268412002 | epot = -10.7519002589223 | etot = 2.09955732604765
7640000  ekin = 6.56333058435829 |  erot = 5.79685456466872 | epot = -13.9154352672629 | etot = -1.55525011823589
7680000  ekin = 6.48952735219896 |  erot = 5.11019587921805 | epot = -11.8036904591347 | etot = -0.203967227717675
7720000  ekin = 5.97117915962202 |  erot = 6.20405139562119 | epot = -13.2717358375647 | etot = -1.09650528232151
7760000  ekin = 6.22110295133388 |  erot = 4.91327777529508 | epot = -14.563103632678 | etot = -3.42872290604899
7800000  ekin = 6.26319903920524 |  erot = 6.09907626916441 | epot = -13.213154318547 | etot = -0.850879010177401
7840000  ekin = 7.33502453361165 |  erot = 6.70897199133362 | epot = -14.4583598181162 | etot = -0.414363293170879
7880000  ekin = 7.08078877932172 |  erot = 5.69114281114599 | epot = -13.1377177108171 | etot = -0.365786120349391
7920000  ekin = 5.76973093856322 |  erot = 5.87587907685675 | epot = -12.8192262382192 | etot = -1.17361622279922
7960000  ekin = 5.51382282336205 |  erot = 5.76553294300304 | epot = -11.8238091432676 | etot = -0.544453376902558
8000000  ekin = 6.74265889383574 |  erot = 5.88665286314874 | epot = -12.9090017933708 | etot = -0.279690036386292
8040000  ekin = 6.36893452120533 |  erot = 5.68716103832297 | epot = -12.814832684814 | etot = -0.758737125285744
8080000  ekin = 7.49569506789112 |  erot = 7.18603992339818 | epot = -13.4183797103153 | etot = 1.26335528097395
8120000  ekin = 6.06238066000999 |  erot = 6.03976757995448 | epot = -12.5015077965711 | etot = -0.399359556606628
8160000  ekin = 6.76732633532983 |  erot = 6.34216646922544 | epot = -12.0678531808689 | etot = 1.04163962368639
8200000  ekin = 5.72352799580414 |  erot = 5.82448932890092 | epot = -12.4406202590319 | etot = -0.892602934326868
8240000  ekin = 5.90146498184925 |  erot = 6.28647155657342 | epot = -14.1727087384217 | etot = -1.98477219999899
8280000  ekin = 5.09309262616442 |  erot = 6.87953706379085 | epot = -11.8152214460433 | etot = 0.157408243911954
8320000  ekin = 6.21368343759023 |  erot = 5.84749313590745 | epot = -13.3761361589583 | etot = -1.31495958546066
8360000  ekin = 5.83592048738144 |  erot = 6.19152935405048 | epot = -14.2205263610041 | etot = -2.19307651957222
8400000  ekin = 5.61559506188316 |  erot = 5.50820777296538 | epot = -12.015848241896 | etot = -0.892045407047421
8440000  ekin = 6.1251201082883 |  erot = 5.68500024544442 | epot = -14.1173584493945 | etot = -2.30723809566178
8480000  ekin = 5.91526286382049 |  erot = 6.60897157329384 | epot = -12.4209271457846 | etot = 0.103307291329719
8520000  ekin = 5.23743572720188 |  erot = 5.1667226878637 | epot = -12.5200661794197 | etot = -2.11590776435407
8560000  ekin = 5.94600799619465 |  erot = 5.79902453543709 | epot = -13.2691851141379 | etot = -1.5241525825062
8600000  ekin = 6.60897714264401 |  erot = 5.88963532550628 | epot = -14.4015180696399 | etot = -1.90290560148964
8640000  ekin = 6.13975511857354 |  erot = 5.59699518665823 | epot = -13.7288104955741 | etot = -1.9920601903423
8680000  ekin = 6.70599025606861 |  erot = 5.62249101953106 | epot = -13.7310112600122 | etot = -1.40252998441249
8720000  ekin = 5.18036576737803 |  erot = 7.30988659563176 | epot = -11.8169818942805 | etot = 0.673270468729264
8760000  ekin = 5.83164474365102 |  erot = 5.66547001199858 | epot = -9.58891250391944 | etot = 1.90820225173016
8800000  ekin = 5.9785883929271 |  erot = 6.004658114609 | epot = -11.8689176013461 | etot = 0.114328906190003
8840000  ekin = 5.53575047721061 |  erot = 5.8759085177323 | epot = -10.6898741111114 | etot = 0.721784883831553
8880000  ekin = 7.23574254795376 |  erot = 6.23199114485174 | epot = -11.6893544144328 | etot = 1.77837927837267
8920000  ekin = 7.47625753154971 |  erot = 4.72302351978023 | epot = -11.0468238570262 | etot = 1.15245719430371
8960000  ekin = 7.0392437211492 |  erot = 5.44988640609225 | epot = -11.4695557716484 | etot = 1.01957435559304
9000000  ekin = 7.30176909576429 |  erot = 5.25773538882513 | epot = -11.8136763719065 | etot = 0.745828112682945
9040000  ekin = 6.52601405496704 |  erot = 5.41848530046631 | epot = -12.4686282834855 | etot = -0.524128928052143
9080000  ekin = 7.170025295576 |  erot = 6.20542294838288 | epot = -13.6128775005099 | etot = -0.237429256551071
9120000  ekin = 5.46671048245792 |  erot = 7.35155872439699 | epot = -13.6121338340592 | etot = -0.793864627204279
9160000  ekin = 5.65215237171366 |  erot = 7.54571987771527 | epot = -12.6938480645101 | etot = 0.504024184918851
9200000  ekin = 5.16521681623773 |  erot = 6.38244708371538 | epot = -14.694837595537 | etot = -3.14717369558389
9240000  ekin = 5.16607592422179 |  erot = 6.91054195657922 | epot = -12.3345363841739 | etot = -0.257918503372867
9280000  ekin = 5.992751018373 |  erot = 5.20262832537045 | epot = -12.3544998622908 | etot = -1.15912051854738
9320000  ekin = 5.17049705561718 |  erot = 6.53160130465857 | epot = -11.4699017155195 | etot = 0.232196644756284
9360000  ekin = 5.4903972496328 |  erot = 5.61318435457011 | epot = -13.285491471489 | etot = -2.18190986728611
9400000  ekin = 6.24218404537495 |  erot = 5.35283849101804 | epot = -12.2247985989181 | etot = -0.62977606252506
9440000  ekin = 7.1314537441094 |  erot = 5.52287996678264 | epot = -11.5219161222577 | etot = 1.13241758863429
9480000  ekin = 5.99066600205655 |  erot = 5.33246148757432 | epot = -13.9326474391398 | etot = -2.60951994950895
9520000  ekin = 5.64461313763929 |  erot = 6.63538202723469 | epot = -14.7414943127371 | etot = -2.46149914786309
9560000  ekin = 4.9323055582254 |  erot = 7.64059561612304 | epot = -13.4704834268437 | etot = -0.897582252495253
9600000  ekin = 4.90707876360828 |  erot = 6.87107929210665 | epot = -14.3961563710202 | etot = -2.61799831530522
9640000  ekin = 6.22747456232197 |  erot = 5.09909782763519 | epot = -13.1722221575 | etot = -1.84564976754287
9680000  ekin = 6.37851029000657 |  erot = 5.10356196114905 | epot = -13.8839164656625 | etot = -2.4018442145069
9720000  ekin = 6.47214650760313 |  erot = 5.5578231901899 | epot = -13.224640465125 | etot = -1.19467076733196
9760000  ekin = 5.26708090089019 |  erot = 6.56094766073527 | epot = -14.5861571815255 | etot = -2.75812861989999
9800000  ekin = 6.48363689472734 |  erot = 6.58646310038878 | epot = -13.6867311813199 | etot = -0.616631186203769
9840000  ekin = 6.73422064420067 |  erot = 5.55656699633955 | epot = -11.602031979383 | etot = 0.688755661157211
9880000  ekin = 6.87578847597474 |  erot = 7.19852450618761 | epot = -12.6592528113961 | etot = 1.41506017076624
9920000  ekin = 6.11035053778833 |  erot = 5.61449463776979 | epot = -14.0626162265909 | etot = -2.33777105103274
9960000  ekin = 4.86294729833984 |  erot = 5.8489520070979 | epot = -12.6876055576898 | etot = -1.9757062522521
10000000  ekin = 5.98537046851801 |  erot = 5.24178337313702 | epot = -11.191810287353 | etot = 0.0353435543020044
10040000  ekin = 5.68522942011801 |  erot = 5.19404278366782 | epot = -14.1631121911344 | etot = -3.28383998734861
10080000  ekin = 5.75955368242614 |  erot = 6.84580585900104 | epot = -11.8659095609792 | etot = 0.739449980447995
10120000  ekin = 5.89451634967804 |  erot = 5.63345939385033 | epot = -13.6580776044854 | etot = -2.13010186095699
10160000  ekin = 5.97735556429153 |  erot = 6.24029068581651 | epot = -12.6413147579977 | etot = -0.423668507889664
10200000  ekin = 5.54766740374054 |  erot = 6.21547029211323 | epot = -13.6203799038558 | etot = -1.85724220800199
10240000  ekin = 6.32097424187814 |  erot = 5.80124110676269 | epot = -14.1444778758483 | etot = -2.02226252720744
10280000  ekin = 5.53027419325905 |  erot = 6.09179823505541 | epot = -11.2434866493452 | etot = 0.378585778969223
10320000  ekin = 7.35275164954079 |  erot = 6.11376943725403 | epot = -12.8729422731747 | etot = 0.593578813620109
10360000  ekin = 6.0892177654164 |  erot = 5.52253871040206 | epot = -14.9944217075835 | etot = -3.38266523176505
10400000  ekin = 4.59914577747064 |  erot = 6.47172668170302 | epot = -13.4807672156782 | etot = -2.4098947565045
10440000  ekin = 5.8932934844385 |  erot = 5.48918732567165 | epot = -13.600326680739 | etot = -2.21784587062889
10480000  ekin = 5.94821931371339 |  erot = 5.01320511796503 | epot = -13.3627385493395 | etot = -2.4013141176611
10520000  ekin = 6.04724602751744 |  erot = 5.87204092627849 | epot = -11.4280299399633 | etot = 0.49125701383263
10560000  ekin = 6.29632782347024 |  erot = 6.25397196366168 | epot = -11.8960331130638 | etot = 0.654266674068115
10600000  ekin = 6.56820710710897 |  erot = 5.89534525918556 | epot = -13.5963323626192 | etot = -1.13277999632464
10640000  ekin = 6.78528842905147 |  erot = 6.70091738374726 | epot = -11.7100760380534 | etot = 1.77612977474538
10680000  ekin = 5.09818873941987 |  erot = 5.49960601675152 | epot = -13.5127873286498 | etot = -2.91499257247844
10720000  ekin = 7.23601519515114 |  erot = 5.74353936320666 | epot = -13.473277746235 | etot = -0.493723187877228
10760000  ekin = 5.67192333412246 |  erot = 6.73437033030143 | epot = -11.9357337692019 | etot = 0.470559895221994
10800000  ekin = 6.07087851664197 |  erot = 4.7148586162551 | epot = -12.8738998048886 | etot = -2.08816267199154
10840000  ekin = 5.57188123032149 |  erot = 7.04456397333491 | epot = -13.9447802464067 | etot = -1.32833504275031
10880000  ekin = 6.73211132141288 |  erot = 6.28941851871979 | epot = -12.8156307683898 | etot = 0.205899071742852
10920000  ekin = 7.14966375171222 |  erot = 5.79159087424526 | epot = -13.9345035542062 | etot = -0.993248928248736
10960000  ekin = 4.97666427532193 |  erot = 6.65398900074385 | epot = -13.139866718462 | etot = -1.50921344239621
11000000  ekin = 5.9821793991744 |  erot = 6.2984318457352 | epot = -12.624858550197 | etot = -0.344247305287361
11000000 0.0021326843 -0.0076919456 0.00094429271 -0.0035503363 -7.7315154e-05 
Loop time of 3685 on 1 procs for 11000000 steps with 1871 atoms

Performance: 773731.800 tau/day, 2985.076 timesteps/s
99.4% CPU use with 1 MPI tasks x 1 OpenMP threads

MPI task timing breakdown:
Section |  min time  |  avg time  |  max time  |%varavg| %total
---------------------------------------------------------------
Pair    | 2176.4     | 2176.4     | 2176.4     |   0.0 | 59.06
Bond    | 65.258     | 65.258     | 65.258     |   0.0 |  1.77
Neigh   | 14.107     | 14.107     | 14.107     |   0.0 |  0.38
Comm    | 264.44     | 264.44     | 264.44     |   0.0 |  7.18
Output  | 7.1049e-05 | 7.1049e-05 | 7.1049e-05 |   0.0 |  0.00
Modify  | 947.71     | 947.71     | 947.71     |   0.0 | 25.72
Other   |            | 217.1      |            |       |  5.89

Nlocal:    1871 ave 1871 max 1871 min
Histogram: 1 0 0 0 0 0 0 0 0 0
Nghost:    1056 ave 1056 max 1056 min
Histogram: 1 0 0 0 0 0 0 0 0 0
Neighs:    1013 ave 1013 max 1013 min
Histogram: 1 0 0 0 0 0 0 0 0 0

Total # of neighbors = 1013
Ave neighs/atom = 0.541422
Ave special neighs/atom = 0.12186
Neighbor list builds = 1838
Dangerous builds = 0
Finding 1-2 1-3 1-4 neighbors ...
 Special bond factors lj:   0          1          1         
 Special bond factors coul: 1          1          1         
Neighbor list info ...
  update every 1 steps, delay 0 steps, check yes
  max neighbors/atom: 2000, page size: 100000
  master list distance cutoff = 2.6274
  ghost atom cutoff = 2.6274
  binsize = 1.3137, bins = 16 16 229
  6 neighbor lists, perpetual/occasional/extra = 6 0 0
  (1) pair oxdna2/excv, perpetual
      attributes: half, newton off
      pair build: half/bin/newtoff
      stencil: half/bin/3d/newtoff
      bin: standard
  (2) pair oxdna2/stk, perpetual, skip from (1)
      attributes: half, newton off
      pair build: skip
      stencil: none
      bin: none
  (3) pair oxdna2/hbond, perpetual, copy from (2)
      attributes: half, newton off
      pair build: copy
      stencil: none
      bin: none
  (4) pair oxdna2/xstk, perpetual, copy from (2)
      attributes: half, newton off
      pair build: copy
      stencil: none
      bin: none
  (5) pair oxdna2/coaxstk, perpetual, copy from (2)
      attributes: half, newton off
      pair build: copy
      stencil: none
      bin: none
  (6) pair oxdna2/dh, perpetual, skip from (1)
      attributes: half, newton off
      pair build: skip
      stencil: none
      bin: none
Setting up Verlet run ...
  Unit style    : lj
  Current step  : 11000000
  Time step     : 0.003
Per MPI rank memory allocation (min/avg/max) = 12.65 | 12.65 | 12.65 Mbytes
Step Temp E_pair E_mol TotEng Press 
11000000 0.0021326843 -0.0076919456 0.00094429271 -0.0035503363 -7.7315154e-05 
11040000  ekin = 6.11843114664152 |  erot = 5.95114368081482 | epot = -13.8677149167 | etot = -1.79814008924363
11080000  ekin = 6.10191468776059 |  erot = 5.39249923279236 | epot = -12.839185677336 | etot = -1.34477175678302
11120000  ekin = 7.83005106206621 |  erot = 6.78628250994981 | epot = -12.5913222051224 | etot = 2.02501136689358
11160000  ekin = 5.62862935885583 |  erot = 5.68590367925473 | epot = -10.4661842703054 | etot = 0.848348767805136
11200000  ekin = 5.58926721844273 |  erot = 6.28077314228382 | epot = -10.122014539888 | etot = 1.7480258208385
11240000  ekin = 5.47209947736423 |  erot = 5.58921392691552 | epot = -12.2210871683092 | etot = -1.15977376402946
11280000  ekin = 5.56186930326075 |  erot = 6.13102131983593 | epot = -12.2769339914619 | etot = -0.584043368365229
11320000  ekin = 6.59761738085501 |  erot = 6.12238883801903 | epot = -11.9438966200249 | etot = 0.776109598849189
11360000  ekin = 5.02944282354719 |  erot = 6.38633042880266 | epot = -13.9800632925912 | etot = -2.56429004024135
11400000  ekin = 5.12664887279253 |  erot = 6.0653112137816 | epot = -11.709398706111 | etot = -0.517438619536881
11440000  ekin = 7.30864403187052 |  erot = 5.68691879175063 | epot = -14.3017762654317 | etot = -1.30621344181055
11480000  ekin = 5.66655389888081 |  erot = 6.97298161197125 | epot = -12.2875293533063 | etot = 0.35200615754575
11520000  ekin = 7.46864834694408 |  erot = 6.78782500951282 | epot = -14.0027916038041 | etot = 0.253681752652751
11560000  ekin = 6.3930116529245 |  erot = 6.99739343270352 | epot = -12.2733799853982 | etot = 1.11702510022983
11600000  ekin = 6.98806364453273 |  erot = 6.82437431349661 | epot = -14.1241342208154 | etot = -0.311696262786114
11640000  ekin = 6.16460040057818 |  erot = 5.41687410196938 | epot = -13.6598905943565 | etot = -2.07841609180893
11680000  ekin = 6.88512242024975 |  erot = 5.39371652770596 | epot = -13.8969271125663 | etot = -1.61808816461062
11720000  ekin = 6.18271825408635 |  erot = 5.95163865238278 | epot = -12.2544554632587 | etot = -0.120098556789612
11760000  ekin = 5.41980293203927 |  erot = 4.89690038089469 | epot = -12.9569435214984 | etot = -2.64024020856444
11800000  ekin = 5.58822919378021 |  erot = 5.97465151050271 | epot = -12.2595366971172 | etot = -0.696655992834241
11840000  ekin = 6.30796566152723 |  erot = 5.21031565326268 | epot = -11.8510665711405 | etot = -0.332785256350569
11880000  ekin = 7.00266167650254 |  erot = 6.92103246834564 | epot = -12.465955885283 | etot = 1.45773825956522
11920000  ekin = 5.44198698008994 |  erot = 5.63747224090227 | epot = -13.7937891132052 | etot = -2.71432989221298
11960000  ekin = 7.0440899913418 |  erot = 5.60826656428564 | epot = -12.4534448238316 | etot = 0.198911731795866
12000000  ekin = 5.86733132474681 |  erot = 5.49198456939052 | epot = -11.6275207114369 | etot = -0.26820481729955
12040000  ekin = 8.24722221953228 |  erot = 6.70026683366075 | epot = -11.2590011835647 | etot = 3.68848786962833
12080000  ekin = 6.20816811140918 |  erot = 5.65910573250984 | epot = -13.2180758941579 | etot = -1.35080205023884
12120000  ekin = 4.53408930252113 |  erot = 5.34433765212453 | epot = -13.1736187659508 | etot = -3.2951918113051
12160000  ekin = 6.42323466906925 |  erot = 5.73286134425399 | epot = -11.590271920599 | etot = 0.565824092724265
12200000  ekin = 6.61912328893845 |  erot = 5.68223390467518 | epot = -11.8547297276502 | etot = 0.446627465963417
12240000  ekin = 6.13846783048271 |  erot = 6.05143787667756 | epot = -11.9853802559641 | etot = 0.204525451196194
12280000  ekin = 6.9617431984436 |  erot = 5.91458881687743 | epot = -11.3684488427166 | etot = 1.50788317260447
12320000  ekin = 5.68348403310081 |  erot = 4.91434374078382 | epot = -11.5144332943686 | etot = -0.916605520484012
12360000  ekin = 5.43683066943172 |  erot = 5.39199143600542 | epot = -12.3096714417567 | etot = -1.48084933631957
12400000  ekin = 5.77988545126253 |  erot = 5.16981083955616 | epot = -13.5066648338317 | etot = -2.55696854301303
12440000  ekin = 4.7271473068753 |  erot = 5.87303900154453 | epot = -14.15116669464 | etot = -3.55098038622018
12480000  ekin = 6.33832632916075 |  erot = 6.80375630562949 | epot = -12.9102179964864 | etot = 0.231864638303861
12520000  ekin = 4.41177378730486 |  erot = 5.63588787840636 | epot = -13.2567372489067 | etot = -3.20907558319548
12560000  ekin = 6.71068657108871 |  erot = 6.74468726635634 | epot = -14.475220011399 | etot = -1.01984617395395
12600000  ekin = 6.61247663503706 |  erot = 7.18409172393512 | epot = -13.0334446892259 | etot = 0.763123669746253
12640000  ekin = 6.85073619510555 |  erot = 5.47208472454474 | epot = -12.9478528342534 | etot = -0.625031914603069
12680000  ekin = 5.75390630242775 |  erot = 5.96389159977264 | epot = -13.833695070799 | etot = -2.11589716859865
12720000  ekin = 7.86010478188699 |  erot = 6.48679840636849 | epot = -12.4038891625251 | etot = 1.94301402573039
12760000  ekin = 5.65423372595098 |  erot = 5.26842353627945 | epot = -13.724695840112 | etot = -2.8020385778816
12800000  ekin = 5.96155798737366 |  erot = 5.76821105414154 | epot = -14.0141643124384 | etot = -2.28439527092317
12840000  ekin = 5.99658041613205 |  erot = 5.93759322014408 | epot = -14.2439158393148 | etot = -2.30974220303864
12880000  ekin = 6.48300448675321 |  erot = 6.44644931983477 | epot = -12.9699116361814 | etot = -0.0404578295933806
12920000  ekin = 4.57776087659914 |  erot = 6.03751523764548 | epot = -13.3487189526768 | etot = -2.73344283843215
12960000  ekin = 5.2916199074491 |  erot = 4.91692034559316 | epot = -12.9251174663597 | etot = -2.71657721331743
13000000  ekin = 5.30658125658576 |  erot = 5.87413222509458 | epot = -11.9290730518214 | etot = -0.748359570141041
13040000  ekin = 6.99123486010139 |  erot = 5.41745108622944 | epot = -11.6560817167609 | etot = 0.752604229569965
13080000  ekin = 5.92331137702808 |  erot = 6.44680381430399 | epot = -10.530928367107 | etot = 1.83918682422506
13120000  ekin = 6.02105718108656 |  erot = 5.71484777418319 | epot = -11.3460514893396 | etot = 0.389853465930191
13160000  ekin = 6.44254123547956 |  erot = 5.02371762902805 | epot = -12.6514574643151 | etot = -1.18519859980745
13200000  ekin = 4.90593234613486 |  erot = 6.29264387507127 | epot = -11.0977309572387 | etot = 0.100845263967399
13200000 0.0017489955 -0.0071357643 0.0012043207 -0.0033093525 -2.2213357e-05 
Loop time of 1337.83 on 1 procs for 2200000 steps with 1871 atoms

Performance: 426241.494 tau/day, 1644.450 timesteps/s
99.2% CPU use with 1 MPI tasks x 1 OpenMP threads

MPI task timing breakdown:
Section |  min time  |  avg time  |  max time  |%varavg| %total
---------------------------------------------------------------
Pair    | 442.67     | 442.67     | 442.67     |   0.0 | 33.09
Bond    | 12.875     | 12.875     | 12.875     |   0.0 |  0.96
Neigh   | 2.6964     | 2.6964     | 2.6964     |   0.0 |  0.20
Comm    | 55.379     | 55.379     | 55.379     |   0.0 |  4.14
Output  | 0.020288   | 0.020288   | 0.020288   |   0.0 |  0.00
Modify  | 777.25     | 777.25     | 777.25     |   0.0 | 58.10
Other   |            | 46.94      |            |       |  3.51

Nlocal:    1871 ave 1871 max 1871 min
Histogram: 1 0 0 0 0 0 0 0 0 0
Nghost:    1056 ave 1056 max 1056 min
Histogram: 1 0 0 0 0 0 0 0 0 0
Neighs:    1073 ave 1073 max 1073 min
Histogram: 1 0 0 0 0 0 0 0 0 0

Total # of neighbors = 1073
Ave neighs/atom = 0.57349
Ave special neighs/atom = 0.12186
Neighbor list builds = 361
Dangerous builds = 0
Finding 1-2 1-3 1-4 neighbors ...
 Special bond factors lj:   0          1          1         
 Special bond factors coul: 1          1          1         
Neighbor list info ...
  update every 1 steps, delay 0 steps, check yes
  max neighbors/atom: 2000, page size: 100000
  master list distance cutoff = 2.6274
  ghost atom cutoff = 2.6274
  binsize = 1.3137, bins = 16 16 229
  6 neighbor lists, perpetual/occasional/extra = 6 0 0
  (1) pair oxdna2/excv, perpetual
      attributes: half, newton off
      pair build: half/bin/newtoff
      stencil: half/bin/3d/newtoff
      bin: standard
  (2) pair oxdna2/stk, perpetual, skip from (1)
      attributes: half, newton off
      pair build: skip
      stencil: none
      bin: none
  (3) pair oxdna2/hbond, perpetual, copy from (2)
      attributes: half, newton off
      pair build: copy
      stencil: none
      bin: none
  (4) pair oxdna2/xstk, perpetual, copy from (2)
      attributes: half, newton off
      pair build: copy
      stencil: none
      bin: none
  (5) pair oxdna2/coaxstk, perpetual, copy from (2)
      attributes: half, newton off
      pair build: copy
      stencil: none
      bin: none
  (6) pair oxdna2/dh, perpetual, skip from (1)
      attributes: half, newton off
      pair build: skip
      stencil: none
      bin: none
Setting up Verlet run ...
  Unit style    : lj
  Current step  : 13200000
  Time step     : 0.003
Per MPI rank memory allocation (min/avg/max) = 12.65 | 12.65 | 12.65 Mbytes
Step Temp E_pair E_mol TotEng Press 
13200000 0.0017489955 -0.0071357643 0.0012043207 -0.0033093525 -2.2213357e-05 
13240000  ekin = 4.97502011302671 |  erot = 6.94956518694562 | epot = -9.95016256130518 | etot = 1.97442273866715
13280000  ekin = 6.54906782881768 |  erot = 5.47108964695708 | epot = -11.9825859500409 | etot = 0.0375715257338953
13320000  ekin = 6.80781972701757 |  erot = 5.73656922114641 | epot = -11.814631937839 | etot = 0.729757010324933
13360000  ekin = 5.44317728560635 |  erot = 5.88841243504642 | epot = -12.2147530157065 | etot = -0.88316329505373
13400000  ekin = 6.45934997509641 |  erot = 5.88525702395451 | epot = -11.4165443333562 | etot = 0.92806266569475
13440000  ekin = 6.42116014370082 |  erot = 5.61953517091999 | epot = -11.6803235650082 | etot = 0.360371749612629
13480000  ekin = 6.43693444159821 |  erot = 5.98463104846277 | epot = -11.4437627886029 | etot = 0.977802701458058
13520000  ekin = 5.15848004193315 |  erot = 5.66009881183086 | epot = -10.1421518698477 | etot = 0.676426983916285
13560000  ekin = 6.73634195148886 |  erot = 4.96693562206451 | epot = -9.99986602412404 | etot = 1.70341154942934
13600000  ekin = 5.34313835978061 |  erot = 5.73485273141864 | epot = -10.7732604886853 | etot = 0.304730602513922
13640000  ekin = 5.38771634445873 |  erot = 7.18948811051214 | epot = -11.2698188192435 | etot = 1.30738563572734
13680000  ekin = 6.18678248310211 |  erot = 7.04829610461204 | epot = -12.3841116426305 | etot = 0.850966945083647
13720000  ekin = 5.25867429540014 |  erot = 7.13138730949266 | epot = -12.2387912194111 | etot = 0.151270385481723
13760000  ekin = 4.81641232979182 |  erot = 4.76207700056827 | epot = -12.1813320349925 | etot = -2.60284270463244
13800000  ekin = 5.4869463660148 |  erot = 6.46120748783735 | epot = -10.2688282857045 | etot = 1.67932556814765
13840000  ekin = 5.04606473839389 |  erot = 6.89685112459172 | epot = -12.6283421790442 | etot = -0.685426316058628
13880000  ekin = 6.13568170523025 |  erot = 6.64252350533055 | epot = -12.8130361164331 | etot = -0.0348309058723135
13920000  ekin = 5.33262911433061 |  erot = 5.00408233656665 | epot = -12.6378285663644 | etot = -2.3011171154671
13960000  ekin = 5.72325767596368 |  erot = 5.41883356543638 | epot = -12.3155650403231 | etot = -1.17347379892302
14000000  ekin = 5.20831977275928 |  erot = 5.99068776529523 | epot = -12.9252766197006 | etot = -1.72626908164608
14040000  ekin = 6.67790141906406 |  erot = 6.84567685359619 | epot = -12.552377001708 | etot = 0.971201270952212
14080000  ekin = 5.72174002297848 |  erot = 5.65208653326756 | epot = -10.8513708564229 | etot = 0.522455699823128
14120000  ekin = 5.73064380434121 |  erot = 6.70763060010787 | epot = -11.8884019474641 | etot = 0.549872456984978
14160000  ekin = 5.83018452103105 |  erot = 7.10790238040383 | epot = -11.0444186674731 | etot = 1.89366823396182
14200000  ekin = 6.38938720472686 |  erot = 5.95335681621178 | epot = -12.236247178427 | etot = 0.106496842511673
14240000  ekin = 6.10445184704313 |  erot = 6.93173805113158 | epot = -10.6663082432388 | etot = 2.36988165493591
14280000  ekin = 5.86450146547332 |  erot = 7.42021351389308 | epot = -11.1467389097612 | etot = 2.13797606960522
14320000  ekin = 5.2601302437933 |  erot = 5.65788980898648 | epot = -12.2089367873047 | etot = -1.29091673452488
14360000  ekin = 4.98112415105018 |  erot = 5.32996836538305 | epot = -9.90808532301065 | etot = 0.403007193422575
14400000  ekin = 6.06955276446766 |  erot = 5.6466995804739 | epot = -11.8846046993607 | etot = -0.168352354419163
14440000  ekin = 6.55440465316888 |  erot = 5.67539845399589 | epot = -11.5905985512654 | etot = 0.639204555899411
14480000  ekin = 5.26311874805846 |  erot = 5.32378080209895 | epot = -11.1655020597357 | etot = -0.578602509578268
14520000  ekin = 5.69570354544023 |  erot = 6.40816546274447 | epot = -11.0413321696361 | etot = 1.06253683854865
14560000  ekin = 6.23790016516775 |  erot = 5.30295693033702 | epot = -11.2944975496928 | etot = 0.246359545811949
14600000  ekin = 5.55918750498535 |  erot = 6.12084012892245 | epot = -10.5057833211502 | etot = 1.17424431275755
14640000  ekin = 4.4208929232277 |  erot = 5.05067559365101 | epot = -10.5879290428231 | etot = -1.11636052594441
14680000  ekin = 6.06122934818949 |  erot = 4.19344308911787 | epot = -10.4991362111196 | etot = -0.244463773812225
14720000  ekin = 7.1216416747456 |  erot = 5.91150340343016 | epot = -11.554933145628 | etot = 1.47821193254774
14760000  ekin = 5.30883862203758 |  erot = 5.67910293016861 | epot = -12.8551783653296 | etot = -1.86723681312344
14800000  ekin = 6.0702967527035 |  erot = 7.49753269111347 | epot = -13.4985524595737 | etot = 0.0692769842432224
14840000  ekin = 5.46400504327889 |  erot = 5.33599421920268 | epot = -12.8647507672216 | etot = -2.06475150474007
14880000  ekin = 6.84520320483194 |  erot = 6.68271221511686 | epot = -12.7172422867585 | etot = 0.810673133190342
14920000  ekin = 5.05674214820024 |  erot = 6.53548368805331 | epot = -14.6709853330912 | etot = -3.07875949683764
14960000  ekin = 6.38267296974321 |  erot = 5.46394480081958 | epot = -11.6026974952817 | etot = 0.24392027528113
15000000  ekin = 6.13462072761422 |  erot = 5.91188152750715 | epot = -13.2180616771457 | etot = -1.17155942202436
15040000  ekin = 6.66116193539818 |  erot = 6.46206775528813 | epot = -12.8646943238893 | etot = 0.258535366797036
15080000  ekin = 6.27262696918725 |  erot = 6.4655045821829 | epot = -12.0611414671985 | etot = 0.676990084171601
15120000  ekin = 6.54222416548809 |  erot = 6.1685003729515 | epot = -13.6992681651009 | etot = -0.988543626661345
15160000  ekin = 6.07144015355491 |  erot = 5.1120003345501 | epot = -13.0870659804661 | etot = -1.90362549236114
15200000  ekin = 6.05208924691528 |  erot = 5.31080003333399 | epot = -11.1744099701257 | etot = 0.188479310123583
15240000  ekin = 5.86352064747876 |  erot = 6.23341620420134 | epot = -10.6789248037553 | etot = 1.41801204792477
15280000  ekin = 6.09841792210584 |  erot = 5.85799050058731 | epot = -12.0780323224213 | etot = -0.121623899728149
15320000  ekin = 6.95370781379717 |  erot = 5.55272241983782 | epot = -9.70264574959657 | etot = 2.80378448403843
15360000  ekin = 6.27456117909148 |  erot = 6.92326077473425 | epot = -10.5958514621704 | etot = 2.60197049165535
15400000  ekin = 5.82008954105666 |  erot = 6.25566133055726 | epot = -10.3375853613633 | etot = 1.7381655102506
15400000 0.0020748982 -0.0062409242 0.00071575835 -0.002414482 -3.640269e-05 
Loop time of 1347.69 on 1 procs for 2200000 steps with 1871 atoms

Performance: 423124.372 tau/day, 1632.424 timesteps/s
99.4% CPU use with 1 MPI tasks x 1 OpenMP threads

MPI task timing breakdown:
Section |  min time  |  avg time  |  max time  |%varavg| %total
---------------------------------------------------------------
Pair    | 440.73     | 440.73     | 440.73     |   0.0 | 32.70
Bond    | 12.909     | 12.909     | 12.909     |   0.0 |  0.96
Neigh   | 2.76       | 2.76       | 2.76       |   0.0 |  0.20
Comm    | 56.849     | 56.849     | 56.849     |   0.0 |  4.22
Output  | 0.020218   | 0.020218   | 0.020218   |   0.0 |  0.00
Modify  | 786.57     | 786.57     | 786.57     |   0.0 | 58.36
Other   |            | 47.85      |            |       |  3.55

Nlocal:    1871 ave 1871 max 1871 min
Histogram: 1 0 0 0 0 0 0 0 0 0
Nghost:    1056 ave 1056 max 1056 min
Histogram: 1 0 0 0 0 0 0 0 0 0
Neighs:    911 ave 911 max 911 min
Histogram: 1 0 0 0 0 0 0 0 0 0

Total # of neighbors = 911
Ave neighs/atom = 0.486905
Ave special neighs/atom = 0.12186
Neighbor list builds = 370
Dangerous builds = 0
Finding 1-2 1-3 1-4 neighbors ...
 Special bond factors lj:   0          1          1         
 Special bond factors coul: 1          1          1         
Neighbor list info ...
  update every 1 steps, delay 0 steps, check yes
  max neighbors/atom: 2000, page size: 100000
  master list distance cutoff = 2.6274
  ghost atom cutoff = 2.6274
  binsize = 1.3137, bins = 16 16 229
  6 neighbor lists, perpetual/occasional/extra = 6 0 0
  (1) pair oxdna2/excv, perpetual
      attributes: half, newton off
      pair build: half/bin/newtoff
      stencil: half/bin/3d/newtoff
      bin: standard
  (2) pair oxdna2/stk, perpetual, skip from (1)
      attributes: half, newton off
      pair build: skip
      stencil: none
      bin: none
  (3) pair oxdna2/hbond, perpetual, copy from (2)
      attributes: half, newton off
      pair build: copy
      stencil: none
      bin: none
  (4) pair oxdna2/xstk, perpetual, copy from (2)
      attributes: half, newton off
      pair build: copy
      stencil: none
      bin: none
  (5) pair oxdna2/coaxstk, perpetual, copy from (2)
      attributes: half, newton off
      pair build: copy
      stencil: none
      bin: none
  (6) pair oxdna2/dh, perpetual, skip from (1)
      attributes: half, newton off
      pair build: skip
      stencil: none
      bin: none
Setting up Verlet run ...
  Unit style    : lj
  Current step  : 15400000
  Time step     : 0.003
Per MPI rank memory allocation (min/avg/max) = 12.65 | 12.65 | 12.65 Mbytes
Step Temp E_pair E_mol TotEng Press 
15400000 0.0020748982 -0.0062409242 0.00071575835 -0.002414482 -3.640269e-05 
15440000  ekin = 6.56949553817631 |  erot = 5.7173107282957 | epot = -9.99350271384845 | etot = 2.29330355262357
15480000  ekin = 5.70808684961488 |  erot = 6.38306637395402 | epot = -10.132521491445 | etot = 1.95863173212393
15520000  ekin = 7.41926672374682 |  erot = 5.73026361205001 | epot = -10.7131653039265 | etot = 2.43636503187035
15560000  ekin = 5.91625830885099 |  erot = 5.91744934579886 | epot = -12.0288377728591 | etot = -0.19513011820928
15600000  ekin = 6.95320084428561 |  erot = 6.00944354821667 | epot = -11.4626106126732 | etot = 1.50003377982904
15640000  ekin = 6.48052672652215 |  erot = 5.68537680988768 | epot = -8.25614933658171 | etot = 3.90975419982812
15680000  ekin = 6.13308591519468 |  erot = 6.07301238878932 | epot = -9.88036706307902 | etot = 2.32573124090498
15720000  ekin = 6.61034884322522 |  erot = 6.4910854040382 | epot = -10.2427360496714 | etot = 2.85869819759198
15760000  ekin = 5.8226053336017 |  erot = 6.02670235695196 | epot = -9.61194933565816 | etot = 2.2373583548955
15800000  ekin = 4.99077785826934 |  erot = 7.29497942795565 | epot = -9.40455343354581 | etot = 2.88120385267919
15840000  ekin = 6.55214920262865 |  erot = 5.73034389247068 | epot = -10.2181528122845 | etot = 2.06434028281484
15880000  ekin = 6.34197741940406 |  erot = 5.72053190167093 | epot = -8.86111089131311 | etot = 3.20139842976188
15920000  ekin = 5.82273449499853 |  erot = 5.50809089732564 | epot = -8.44868743193458 | etot = 2.88213796038959
15960000  ekin = 7.74688830425985 |  erot = 6.33524583188428 | epot = -10.0824928128405 | etot = 3.99964132330362
16000000  ekin = 5.99363874328275 |  erot = 5.30568653157862 | epot = -9.67269391883603 | etot = 1.62663135602535
16040000  ekin = 6.35756045172457 |  erot = 7.17622392262408 | epot = -10.3718265274448 | etot = 3.16195784690385
16080000  ekin = 6.38879002756227 |  erot = 5.46158765269921 | epot = -8.92187693216821 | etot = 2.92850074809327
16120000  ekin = 6.27848297326797 |  erot = 6.02175227386045 | epot = -8.69667719057738 | etot = 3.60355805655105
16160000  ekin = 5.21914810276517 |  erot = 5.74165509929592 | epot = -8.73817621794987 | etot = 2.22262698411123
16200000  ekin = 5.83527911964321 |  erot = 5.58223700132483 | epot = -9.43636889271537 | etot = 1.98114722825267
16240000  ekin = 6.30256064304859 |  erot = 5.43916241343496 | epot = -9.25619023125892 | etot = 2.48553282522463
16280000  ekin = 5.43970507649861 |  erot = 7.05392792245265 | epot = -10.9259962463646 | etot = 1.56763675258666
16320000  ekin = 6.89679390249968 |  erot = 5.91723002574804 | epot = -10.3773865846199 | etot = 2.43663734362786
16360000  ekin = 7.16651356777408 |  erot = 5.35573394181539 | epot = -10.7940224171896 | etot = 1.72822509239983
16400000  ekin = 5.88698492129429 |  erot = 5.57853187015576 | epot = -11.1119683178123 | etot = 0.353548473637787
16440000  ekin = 5.17658109897343 |  erot = 5.89423708403692 | epot = -10.5271601673386 | etot = 0.543658015671706
16480000  ekin = 7.02846194592563 |  erot = 6.63085097854159 | epot = -10.7302577274905 | etot = 2.92905519697674
16520000  ekin = 7.76380628950329 |  erot = 6.0104180170035 | epot = -11.2669489942468 | etot = 2.50727531225997
16560000  ekin = 4.94609663919811 |  erot = 5.50237692489723 | epot = -10.5708636867002 | etot = -0.122390122604898
16600000  ekin = 4.38934425231385 |  erot = 5.12722664838161 | epot = -10.8967934908995 | etot = -1.38022259020408
16640000  ekin = 5.60945210554431 |  erot = 6.68870147938613 | epot = -9.43010334280083 | etot = 2.8680502421296
16680000  ekin = 7.31673780250253 |  erot = 5.69299484564926 | epot = -10.1537794788882 | etot = 2.85595316926359
16720000  ekin = 6.71811552405103 |  erot = 5.88496779108736 | epot = -12.0352574705807 | etot = 0.567825844557648
16760000  ekin = 6.28579445460906 |  erot = 7.08594785727818 | epot = -12.5475652627084 | etot = 0.824177049178893
16800000  ekin = 6.5663226160777 |  erot = 5.81953878735193 | epot = -10.5568701404623 | etot = 1.82899126296733
16840000  ekin = 6.27147830264663 |  erot = 4.64575927448386 | epot = -9.96085174559636 | etot = 0.956385831534128
16880000  ekin = 6.01186096163469 |  erot = 5.81263557057784 | epot = -11.6125118113691 | etot = 0.211984720843402
16920000  ekin = 5.28129284387717 |  erot = 5.62751782755412 | epot = -11.4950588260003 | etot = -0.58624815456905
16960000  ekin = 5.83490426899466 |  erot = 5.73568213156087 | epot = -7.93636271631864 | etot = 3.63422368423689
17000000  ekin = 5.2680892092641 |  erot = 4.91237456762614 | epot = -10.5967790976481 | etot = -0.416315320757867
17040000  ekin = 6.2007545581481 |  erot = 6.69684664243941 | epot = -11.3311386905022 | etot = 1.56646251008533
17080000  ekin = 6.19010261216172 |  erot = 6.37163521632246 | epot = -10.2478605403966 | etot = 2.31387728808756
17120000  ekin = 4.45682341422074 |  erot = 4.98333601276657 | epot = -11.588337850624 | etot = -2.14817842363673
17160000  ekin = 5.88674035812422 |  erot = 5.5326582024307 | epot = -10.519328370968 | etot = 0.900070189586938
17200000  ekin = 6.13423823033689 |  erot = 5.02104866788911 | epot = -11.5615537779078 | etot = -0.406266879681812
17240000  ekin = 5.57914215758859 |  erot = 5.05286459779497 | epot = -11.9682026737242 | etot = -1.3361959183406
17280000  ekin = 6.73589871886424 |  erot = 5.14668252995372 | epot = -10.737358101602 | etot = 1.14522314721597
17320000  ekin = 4.39954828703885 |  erot = 6.48713521479764 | epot = -10.6792698014265 | etot = 0.207413700409948
17360000  ekin = 5.60919030609242 |  erot = 5.69622769638411 | epot = -12.5393377397977 | etot = -1.23391973732112
17400000  ekin = 6.93958373849267 |  erot = 8.0747669249172 | epot = -11.4091160743771 | etot = 3.60523458903274
17440000  ekin = 5.01105441315751 |  erot = 5.53933218685973 | epot = -12.3098483459474 | etot = -1.75946174593012
17480000  ekin = 5.52143469570757 |  erot = 5.48160083797128 | epot = -13.9993806782127 | etot = -2.99634514453382
17520000  ekin = 6.13436435730666 |  erot = 5.94199885999276 | epot = -13.7948346247362 | etot = -1.71847140743675
17560000  ekin = 6.27202629501701 |  erot = 6.38258299368148 | epot = -12.1054921161842 | etot = 0.549117172514283
17600000  ekin = 6.8309119300858 |  erot = 5.20161213717171 | epot = -12.3361173841409 | etot = -0.303593316883376
17600000 0.0024352627 -0.0078405941 0.0012472657 -0.0029423867 -9.0025224e-05 
Loop time of 1354.01 on 1 procs for 2200000 steps with 1871 atoms

Performance: 421148.687 tau/day, 1624.802 timesteps/s
99.3% CPU use with 1 MPI tasks x 1 OpenMP threads

MPI task timing breakdown:
Section |  min time  |  avg time  |  max time  |%varavg| %total
---------------------------------------------------------------
Pair    | 435.87     | 435.87     | 435.87     |   0.0 | 32.19
Bond    | 12.971     | 12.971     | 12.971     |   0.0 |  0.96
Neigh   | 2.7562     | 2.7562     | 2.7562     |   0.0 |  0.20
Comm    | 59.02      | 59.02      | 59.02      |   0.0 |  4.36
Output  | 0.02037    | 0.02037    | 0.02037    |   0.0 |  0.00
Modify  | 793.51     | 793.51     | 793.51     |   0.0 | 58.60
Other   |            | 49.86      |            |       |  3.68

Nlocal:    1871 ave 1871 max 1871 min
Histogram: 1 0 0 0 0 0 0 0 0 0
Nghost:    1056 ave 1056 max 1056 min
Histogram: 1 0 0 0 0 0 0 0 0 0
Neighs:    847 ave 847 max 847 min
Histogram: 1 0 0 0 0 0 0 0 0 0

Total # of neighbors = 847
Ave neighs/atom = 0.452699
Ave special neighs/atom = 0.12186
Neighbor list builds = 370
Dangerous builds = 0
